# Force coefficients
# liftDir      : (0.00000000e+00 1.00000000e+00 0.00000000e+00)
# dragDir      : (1.00000000e+00 0.00000000e+00 0.00000000e+00)
# pitchAxis    : (0.00000000e+00 0.00000000e+00 1.00000000e+00)
# magUInf      : 1.00000000e+00
# lRef         : 2.00000000e+00
# Aref         : 2.00000000e+00
# CofR         : (0.00000000e+00 0.00000000e+00 0.00000000e+00)
#              
# Time         	Cm             	Cd             	Cl             	Cl(f)          	Cl(r)          
0.02           	-1.08446413e-08	1.53299732e+02	3.92757908e-05	1.96270507e-05	1.96487400e-05
0.04           	1.89735884e-08	5.13226552e+00	-6.47635981e-06	-3.21920632e-06	-3.25715350e-06
0.06           	1.28114293e-08	-1.67294755e+01	-9.05243394e-05	-4.52493583e-05	-4.52749811e-05
0.08           	3.44905591e-09	-1.19760359e+01	9.08778091e-05	4.54423536e-05	4.54354555e-05
0.1            	-3.77738923e-09	-6.87125835e+00	1.71667247e-05	8.57958497e-06	8.58713974e-06
0.12           	-8.49014238e-09	-3.81172216e+00	8.51244029e-05	4.25537113e-05	4.25706916e-05
0.14           	3.45920078e-08	-2.17951686e+00	-3.21099040e-05	-1.60203600e-05	-1.60895440e-05
0.16           	8.52917228e-08	-1.32809942e+00	-3.49139442e-05	-1.73716804e-05	-1.75422638e-05
0.18           	9.22881721e-08	-8.61822720e-01	-5.35743185e-05	-2.66948711e-05	-2.68794474e-05
0.2            	7.81047843e-08	-5.82098990e-01	-2.28074810e-05	-1.13256357e-05	-1.14818453e-05
0.22           	5.74761721e-08	-3.96962560e-01	-6.20116149e-06	-3.04310457e-06	-3.15805692e-06
0.24           	4.76174166e-08	-2.64809484e-01	-9.93679603e-06	-4.92078060e-06	-5.01601543e-06
0.26           	5.33932751e-08	-1.66015026e-01	-1.62536050e-05	-8.07340921e-06	-8.18019576e-06
0.28           	6.64516798e-08	-9.00550595e-02	-1.43906859e-05	-7.12889127e-06	-7.26179463e-06
0.3            	7.98583485e-08	-3.05523207e-02	-2.39829562e-05	-1.19116197e-05	-1.20713364e-05
0.32           	8.64537058e-08	1.67151214e-02	-2.03084923e-05	-1.00677924e-05	-1.02406998e-05
0.34           	7.34797446e-08	5.45211699e-02	-1.84001698e-05	-9.12660517e-06	-9.27356465e-06
0.36           	6.22204116e-08	8.51144314e-02	-1.32911387e-05	-6.58334893e-06	-6.70778975e-06
0.38           	5.64767710e-08	1.10107600e-01	-9.07166037e-06	-4.47935342e-06	-4.59230696e-06
0.4            	5.95465750e-08	1.30715891e-01	-7.70815407e-06	-3.79453046e-06	-3.91362361e-06
0.42           	6.52324347e-08	1.47912663e-01	-8.69599712e-06	-4.28276613e-06	-4.41323100e-06
0.44           	7.07965942e-08	1.62377806e-01	-8.13580339e-06	-3.99710510e-06	-4.13869829e-06
0.46           	7.45330823e-08	1.74628419e-01	-1.73461243e-05	-8.59852904e-06	-8.74759521e-06
0.48           	7.63866845e-08	1.85112728e-01	-3.10483852e-05	-1.54478059e-05	-1.56005793e-05
0.5            	7.76048682e-08	1.94153708e-01	-3.21630642e-05	-1.60039272e-05	-1.61591370e-05
0.52           	7.58778079e-08	2.02041595e-01	-3.21970967e-05	-1.60226706e-05	-1.61744262e-05
0.54           	6.82581747e-08	2.08988699e-01	-2.85446062e-05	-1.42040449e-05	-1.43405613e-05
0.56           	5.99873114e-08	2.15288330e-01	-1.43530705e-05	-7.11654796e-06	-7.23652258e-06
0.58           	5.21440790e-08	2.21042955e-01	-1.54397011e-05	-7.66770647e-06	-7.77199462e-06
0.6            	4.52756719e-08	2.26417851e-01	-1.06556065e-05	-5.28252756e-06	-5.37307891e-06
0.62           	3.95327188e-08	2.31727019e-01	-1.12745582e-05	-5.59774637e-06	-5.67681180e-06
0.64           	3.43873799e-08	2.36878698e-01	-9.75746377e-06	-4.84434450e-06	-4.91311926e-06
0.66           	2.99800645e-08	2.41891896e-01	-6.53986580e-06	-3.23995284e-06	-3.29991296e-06
0.68           	2.61008714e-08	2.46618984e-01	-1.11106171e-05	-5.52920770e-06	-5.58140944e-06
0.7            	2.23164935e-08	2.51139351e-01	-6.37886821e-06	-3.16711761e-06	-3.21175060e-06
0.72           	1.86258785e-08	2.55546082e-01	-1.01104815e-05	-5.03661487e-06	-5.07386663e-06
0.74           	1.43769607e-08	2.59919938e-01	-1.00448879e-05	-5.00806700e-06	-5.03682092e-06
0.76           	4.46978098e-09	2.64364554e-01	-1.23288045e-05	-6.15993249e-06	-6.16887205e-06
0.78           	4.39915647e-09	2.68899245e-01	-1.23576133e-05	-6.17440751e-06	-6.18320582e-06
0.8            	-2.24747312e-09	2.70727873e-01	-1.50470945e-05	-7.52579473e-06	-7.52129978e-06
0.82           	-9.67591311e-09	2.71919890e-01	-1.39802560e-05	-6.99980393e-06	-6.98045211e-06
0.84           	-1.73521585e-08	2.72706583e-01	-1.72917912e-05	-8.66324776e-06	-8.62854344e-06
0.86           	-2.37155437e-08	2.76051184e-01	-2.59851083e-05	-1.30162697e-05	-1.29688386e-05
0.88           	-2.86272192e-08	2.75968220e-01	-1.15748034e-05	-5.81602891e-06	-5.75877447e-06
0.9            	-3.31880713e-08	2.79406382e-01	-1.34366712e-05	-6.75152367e-06	-6.68514753e-06
0.92           	-3.71627392e-08	2.82518931e-01	-4.23507013e-06	-2.15469780e-06	-2.08037232e-06
0.94           	-4.08564574e-08	2.87022421e-01	-8.43073101e-06	-4.25622196e-06	-4.17450905e-06
0.96           	-4.37130782e-08	2.91430103e-01	-7.90872370e-06	-3.99807493e-06	-3.91064877e-06
0.98           	-4.64185657e-08	2.96128335e-01	-7.03016890e-06	-3.56150301e-06	-3.46866588e-06
1              	-4.90889400e-08	3.00452937e-01	-5.26554170e-06	-2.68185979e-06	-2.58368191e-06
1.02           	-5.06058669e-08	3.05470486e-01	-1.22227653e-05	-6.16198851e-06	-6.06077678e-06
1.04           	-5.18643121e-08	3.10339353e-01	-1.41415737e-05	-7.12265117e-06	-7.01892254e-06
1.06           	-5.35856172e-08	3.15116268e-01	-1.71427803e-05	-8.62497575e-06	-8.51780451e-06
1.08           	-5.47900773e-08	3.19467509e-01	-1.72308827e-05	-8.67023143e-06	-8.56065127e-06
1.1            	-5.66079314e-08	3.24277221e-01	-1.90949788e-05	-9.60409735e-06	-9.49088149e-06
1.12           	-5.82299144e-08	3.28628963e-01	-1.95306736e-05	-9.82356671e-06	-9.70710688e-06
1.14           	-5.99349575e-08	3.33983596e-01	-1.63343296e-05	-8.22709976e-06	-8.10722984e-06
1.16           	-6.17415963e-08	3.39646415e-01	-1.62388077e-05	-8.18114546e-06	-8.05766227e-06
1.18           	-6.34978527e-08	3.45380786e-01	-1.33181370e-05	-6.72256635e-06	-6.59557064e-06
1.2            	-6.60186088e-08	3.50792625e-01	-3.83447112e-06	-1.98325417e-06	-1.85121695e-06
1.22           	-6.94887792e-08	3.56957588e-01	-1.36198329e-07	-1.37587943e-07	1.38961492e-09
1.24           	-7.15654548e-08	3.63878263e-01	-4.23113431e-06	-2.18713261e-06	-2.04400170e-06
1.26           	-7.30097424e-08	3.73469102e-01	-8.79596495e-06	-4.47099222e-06	-4.32497273e-06
1.28           	-7.40175126e-08	3.80337770e-01	-9.85435134e-06	-5.00119318e-06	-4.85315816e-06
1.3            	-7.51490922e-08	3.85541386e-01	-8.52731261e-06	-4.33880540e-06	-4.18850722e-06
1.32           	-8.24662505e-08	3.91216806e-01	-1.01840041e-05	-5.17446830e-06	-5.00953579e-06
1.34           	-8.26458236e-08	3.97131730e-01	-1.15591128e-05	-5.86220222e-06	-5.69691057e-06
1.36           	-7.92151740e-08	4.03302591e-01	-8.85861560e-06	-4.50852297e-06	-4.35009263e-06
1.38           	-8.69782460e-08	4.09171644e-01	-3.48681978e-06	-1.83038814e-06	-1.65643164e-06
1.4            	-8.72328432e-08	4.16875866e-01	-9.83600337e-06	-5.00523453e-06	-4.83076884e-06
1.42           	-8.74028249e-08	4.24261060e-01	-6.16247999e-06	-3.16864282e-06	-2.99383717e-06
1.44           	-8.78205458e-08	4.31735457e-01	-6.45698542e-06	-3.31631325e-06	-3.14067216e-06
1.46           	-8.86332106e-08	4.37684093e-01	-7.88910692e-06	-4.03318667e-06	-3.85592025e-06
1.48           	-8.82715220e-08	4.44685040e-01	-1.13254754e-05	-5.75100921e-06	-5.57446617e-06
1.5            	-8.79237816e-08	4.52456858e-01	-6.11546316e-06	-3.14565536e-06	-2.96980780e-06
1.52           	-8.73519458e-08	4.60754114e-01	-2.74523726e-06	-1.45997058e-06	-1.28526669e-06
1.54           	-9.27430853e-08	4.69966347e-01	-7.55724893e-06	-3.87136755e-06	-3.68588138e-06
1.56           	-1.10805738e-07	4.79162842e-01	-8.57887652e-06	-4.40024400e-06	-4.17863252e-06
1.58           	-1.32155545e-07	4.81321897e-01	-1.21977341e-05	-6.23102259e-06	-5.96671150e-06
1.6            	-1.49514248e-07	4.87633376e-01	-1.39506627e-05	-7.12484562e-06	-6.82581712e-06
1.62           	-1.58150836e-07	4.96011743e-01	-1.93787427e-05	-9.84752220e-06	-9.53122053e-06
1.64           	-1.59305788e-07	5.05022571e-01	-2.66936545e-05	-1.35061330e-05	-1.31875214e-05
1.66           	-1.55106714e-07	5.11582176e-01	-1.93432508e-05	-9.82673212e-06	-9.51651869e-06
1.68           	-1.56631580e-07	5.20127371e-01	-4.56246600e-05	-2.29689616e-05	-2.26556984e-05
1.7            	-6.73323189e-08	5.29459077e-01	-1.63214920e-05	-8.22807833e-06	-8.09341369e-06
1.72           	-4.45231300e-08	5.39145946e-01	2.19097754e-06	1.05096564e-06	1.14001190e-06
1.74           	-2.78380087e-08	5.48247845e-01	4.93830727e-05	2.46636984e-05	2.47193744e-05
1.76           	-2.82377087e-08	5.55795972e-01	-2.31674735e-05	-1.16119744e-05	-1.15554990e-05
1.78           	-1.11481234e-08	5.65629291e-01	-3.70223256e-05	-1.85223109e-05	-1.85000147e-05
1.8            	3.87672226e-09	5.75956217e-01	-3.19456901e-05	-1.59689683e-05	-1.59767218e-05
1.82           	1.47034516e-08	5.86106241e-01	-5.56823203e-05	-2.78264567e-05	-2.78558636e-05
1.84           	3.09651289e-08	5.94091746e-01	-1.18362615e-05	-5.88716564e-06	-5.94909589e-06
1.86           	3.70948832e-08	6.02391006e-01	-3.20194072e-06	-1.56387548e-06	-1.63806524e-06
1.88           	5.26643844e-08	6.11209957e-01	-5.11263849e-06	-2.50365486e-06	-2.60898363e-06
1.9            	1.38110167e-07	6.22766570e-01	-1.30286846e-05	-6.37623215e-06	-6.65245249e-06
1.92           	8.36505866e-08	6.34788533e-01	-7.55231097e-06	-3.69250490e-06	-3.85980607e-06
1.94           	6.71469723e-09	6.38640133e-01	1.72418346e-05	8.62763198e-06	8.61420259e-06
1.96           	-3.85477570e-08	6.48803353e-01	-1.70812024e-06	-8.92607879e-07	-8.15512365e-07
1.98           	-4.69340515e-08	6.59341944e-01	-1.04027076e-05	-5.24828785e-06	-5.15441975e-06
2              	-5.12266914e-08	6.70163652e-01	-1.50783935e-05	-7.59042346e-06	-7.48797008e-06
2.02           	-5.52823367e-08	6.81561344e-01	-1.75343919e-05	-8.82247827e-06	-8.71191360e-06
2.04           	-5.91832851e-08	6.90832982e-01	-1.56158105e-05	-7.86708853e-06	-7.74872196e-06
2.06           	-8.12136756e-08	7.02310808e-01	-1.62541237e-05	-8.20827553e-06	-8.04584818e-06
2.08           	-1.27858747e-07	7.17371466e-01	-6.21659258e-06	-3.23615504e-06	-2.98043754e-06
2.1            	-1.75114103e-07	7.22155473e-01	-1.56440446e-05	-7.99713641e-06	-7.64690821e-06
2.12           	-2.20887574e-07	7.30748898e-01	-1.57099195e-05	-8.07584734e-06	-7.63407219e-06
2.14           	-2.66317080e-07	7.37336152e-01	-1.58098258e-05	-8.17122997e-06	-7.63859581e-06
2.16           	-3.10524613e-07	7.46600751e-01	-2.25598008e-05	-1.15904250e-05	-1.09693758e-05
2.18           	-3.51021098e-07	7.57266924e-01	-3.05506679e-05	-1.56263551e-05	-1.49243129e-05
2.2            	-3.77828958e-07	7.70885847e-01	-3.42199714e-05	-1.74878147e-05	-1.67321567e-05
2.22           	-3.81732598e-07	7.77999420e-01	-3.06371573e-05	-1.57003113e-05	-1.49368461e-05
2.24           	-3.83444465e-07	7.86998156e-01	-3.04272851e-05	-1.55970870e-05	-1.48301981e-05
2.26           	-3.85079490e-07	7.97903197e-01	9.96840052e-06	4.59912077e-06	5.36927975e-06
2.28           	-3.87954496e-07	8.10339846e-01	-1.78001439e-05	-9.28802643e-06	-8.51211743e-06
2.3            	-3.90052128e-07	8.20171057e-01	-7.36819516e-07	-7.58461886e-07	2.16423700e-08
2.32           	-3.92822605e-07	8.29240913e-01	-1.99057193e-05	-1.03456822e-05	-9.56003702e-06
2.34           	-3.98242716e-07	8.43400054e-01	-1.43652380e-05	-7.58086172e-06	-6.78437629e-06
2.36           	-4.09818490e-07	8.54648435e-01	-1.12920052e-05	-6.05582109e-06	-5.23618411e-06
2.38           	-4.22479083e-07	8.62142447e-01	-1.12887903e-05	-6.06687422e-06	-5.22191605e-06
2.4            	-4.34431738e-07	8.71288584e-01	1.31420340e-05	6.13658525e-06	7.00544873e-06
2.42           	-4.47018832e-07	8.77904196e-01	-3.38680202e-05	-1.73810289e-05	-1.64869913e-05
2.44           	-4.57075196e-07	8.86884484e-01	-1.64207621e-05	-8.66745627e-06	-7.75330588e-06
2.46           	-3.79208263e-07	8.96578544e-01	-1.64549511e-05	-8.60668380e-06	-7.84826728e-06
2.48           	-2.67343042e-07	9.06913932e-01	-1.87896288e-05	-9.66215742e-06	-9.12747134e-06
2.5            	-1.43553024e-07	9.14576814e-01	-9.03518937e-06	-4.66114771e-06	-4.37404166e-06
2.52           	-3.32812813e-07	9.17723130e-01	-3.06590083e-05	-1.56623170e-05	-1.49966913e-05
2.54           	-2.73620740e-07	9.22169508e-01	-2.78643553e-05	-1.42057984e-05	-1.36585569e-05
2.56           	-1.75029334e-07	9.28760458e-01	-3.09039611e-05	-1.56270099e-05	-1.52769512e-05
2.58           	-1.93921646e-07	9.36079464e-01	-3.10324568e-05	-1.57101501e-05	-1.53223068e-05
2.6            	-1.84761366e-07	9.43684775e-01	-3.34852662e-05	-1.69273945e-05	-1.65578717e-05
2.62           	-2.06168898e-07	9.51293303e-01	-3.95940605e-05	-2.00031992e-05	-1.95908614e-05
2.64           	-2.31945182e-07	9.57955875e-01	-4.13650543e-05	-2.09144723e-05	-2.04505820e-05
2.66           	-2.60506287e-07	9.64140160e-01	-4.17476915e-05	-2.11343520e-05	-2.06133394e-05
2.68           	-2.72827222e-07	9.70290344e-01	-5.77586413e-05	-2.91521479e-05	-2.86064934e-05
2.7            	-2.83317356e-07	9.69670804e-01	-5.06649384e-05	-2.56157866e-05	-2.50491519e-05
2.72           	-2.72814595e-07	9.74499184e-01	-5.70715643e-05	-2.88085968e-05	-2.82629676e-05
2.74           	-2.69105590e-07	9.78922986e-01	-2.94107100e-05	-1.49744606e-05	-1.44362494e-05
2.76           	-3.84998201e-07	9.86200415e-01	-3.26936269e-05	-1.67318116e-05	-1.59618152e-05
2.78           	-3.06485702e-07	9.91247025e-01	-3.04857822e-05	-1.55493768e-05	-1.49364054e-05
2.8            	-2.14917736e-07	9.94379249e-01	-4.12983771e-05	-2.08641063e-05	-2.04342708e-05
2.82           	-1.47479333e-07	9.98609221e-01	-3.32057963e-05	-1.67503775e-05	-1.64554188e-05
2.84           	-1.04586777e-07	1.00436220e+00	-3.43657391e-05	-1.72874563e-05	-1.70782828e-05
2.86           	-7.73582344e-08	1.00594917e+00	-3.62162937e-05	-1.81855051e-05	-1.80307886e-05
2.88           	-6.19995700e-08	1.00457409e+00	-2.65526191e-05	-1.33383091e-05	-1.32143100e-05
2.9            	-5.29894755e-08	1.00807775e+00	-2.68668095e-05	-1.34863942e-05	-1.33804153e-05
2.92           	-4.87927950e-08	1.00964042e+00	-2.50216022e-05	-1.25595939e-05	-1.24620083e-05
2.94           	-4.78980704e-08	1.01224836e+00	-2.42940801e-05	-1.21949381e-05	-1.20991420e-05
2.96           	-4.94303429e-08	1.01483557e+00	-2.65111866e-05	-1.33050236e-05	-1.32061629e-05
2.98           	-5.26803021e-08	1.01723439e+00	-2.67601795e-05	-1.34327701e-05	-1.33274095e-05
3              	-5.72222265e-08	1.01986492e+00	-3.05591722e-05	-1.53368083e-05	-1.52223639e-05
3.02           	-6.90129853e-08	1.01771770e+00	-2.81895796e-05	-1.41638028e-05	-1.40257768e-05
3.04           	-2.64291479e-07	1.01584752e+00	-3.07521174e-05	-1.56403502e-05	-1.51117672e-05
3.06           	-4.06872648e-07	1.01687217e+00	-3.33272516e-05	-1.70704984e-05	-1.62567531e-05
3.08           	-4.10370397e-07	1.01760382e+00	-1.11668217e-05	-5.99378126e-06	-5.17304047e-06
3.1            	-4.13025565e-07	1.01772978e+00	-3.52470183e-05	-1.80365347e-05	-1.72104836e-05
3.12           	-4.15669433e-07	1.01753218e+00	-3.93303174e-05	-2.00808281e-05	-1.92494892e-05
3.14           	-4.20610475e-07	1.01936143e+00	-4.13975666e-05	-2.11193938e-05	-2.02781728e-05
3.16           	-4.20462572e-07	1.01953149e+00	-3.84341423e-05	-1.96375337e-05	-1.87966086e-05
3.18           	-4.22567693e-07	1.02490157e+00	-3.81462574e-05	-1.94956964e-05	-1.86505610e-05
3.2            	-4.24567669e-07	1.02513225e+00	-3.79979477e-05	-1.94235415e-05	-1.85744062e-05
3.22           	-3.99200828e-07	1.02385042e+00	-3.73983194e-05	-1.90983605e-05	-1.82999589e-05
3.24           	-3.09222418e-07	1.01979522e+00	-3.70037183e-05	-1.88110816e-05	-1.81926367e-05
3.26           	-2.61759061e-07	1.01889685e+00	-3.64410227e-05	-1.84822704e-05	-1.79587523e-05
3.28           	-3.46808977e-07	1.01750662e+00	-4.07203463e-05	-2.07069821e-05	-2.00133642e-05
3.3            	-3.09768578e-07	1.01821819e+00	-4.96491872e-05	-2.51343622e-05	-2.45148250e-05
3.32           	-3.19617375e-07	1.01756989e+00	-4.56482400e-05	-2.31437374e-05	-2.25045026e-05
3.34           	-3.34109363e-07	1.01696140e+00	-5.11603564e-05	-2.59142876e-05	-2.52460688e-05
3.36           	-3.49182531e-07	1.01440565e+00	-5.04743360e-05	-2.55863505e-05	-2.48879855e-05
3.38           	-3.56449096e-07	1.01092739e+00	-4.80364310e-05	-2.43746646e-05	-2.36617664e-05
3.4            	-3.68234319e-07	1.00923602e+00	-6.01680929e-05	-3.04522807e-05	-2.97158121e-05
3.42           	-3.78414770e-07	1.00713738e+00	-5.70561224e-05	-2.89064760e-05	-2.81496465e-05
3.44           	-3.87647734e-07	1.00700556e+00	-5.83918280e-05	-2.95835617e-05	-2.88082663e-05
3.46           	-3.96007548e-07	1.00542840e+00	-6.27048271e-05	-3.17484211e-05	-3.09564060e-05
3.48           	-4.05067061e-07	1.00333267e+00	-5.96286405e-05	-3.02193873e-05	-2.94092532e-05
3.5            	-3.90185441e-07	1.00107325e+00	-5.72753191e-05	-2.90278450e-05	-2.82474741e-05
3.52           	-3.98125790e-07	9.97877149e-01	-6.27694193e-05	-3.17828354e-05	-3.09865839e-05
3.54           	-4.03739450e-07	9.96342702e-01	-5.56410860e-05	-2.82242824e-05	-2.74168035e-05
3.56           	-4.07170805e-07	9.95072226e-01	-6.39961256e-05	-3.24052336e-05	-3.15908920e-05
3.58           	-4.05422944e-07	9.93762056e-01	-6.15318236e-05	-3.11713347e-05	-3.03604889e-05
3.6            	-3.88098165e-07	9.91137912e-01	-5.78987417e-05	-2.93374690e-05	-2.85612727e-05
3.62           	-3.63135530e-07	9.91708674e-01	-6.01320165e-05	-3.04291438e-05	-2.97028727e-05
3.64           	-3.42129085e-07	9.89550636e-01	-5.15817095e-05	-2.61329838e-05	-2.54487257e-05
3.66           	-2.85345367e-07	9.87805481e-01	-5.08131338e-05	-2.56919123e-05	-2.51212216e-05
3.68           	-2.83560441e-07	9.85771844e-01	-4.72108225e-05	-2.38889717e-05	-2.33218508e-05
3.7            	-2.79626842e-07	9.84363318e-01	-4.59043454e-05	-2.32317995e-05	-2.26725459e-05
3.72           	-2.72308017e-07	9.83049977e-01	-6.10797150e-05	-3.08121655e-05	-3.02675495e-05
3.74           	-2.56264750e-07	9.81556301e-01	-3.83698869e-05	-1.94412082e-05	-1.89286787e-05
3.76           	-2.35206093e-07	9.78082632e-01	-2.66450222e-05	-1.35577172e-05	-1.30873050e-05
3.78           	-2.30256288e-07	9.73862219e-01	-4.53607532e-05	-2.29106329e-05	-2.24501203e-05
3.8            	-2.30770765e-07	9.72033941e-01	-4.05244875e-05	-2.04930145e-05	-2.00314730e-05
3.82           	-3.08659456e-07	9.67736991e-01	-4.38721473e-05	-2.22447331e-05	-2.16274142e-05
3.84           	-3.07471210e-07	9.64369846e-01	-4.26672174e-05	-2.16410799e-05	-2.10261375e-05
3.86           	-2.77602018e-07	9.62455125e-01	-4.18126929e-05	-2.11839485e-05	-2.06287444e-05
3.88           	-2.62719191e-07	9.59468141e-01	-4.33999422e-05	-2.19626903e-05	-2.14372519e-05
3.9            	-2.59061847e-07	9.59153784e-01	-4.09360784e-05	-2.07271010e-05	-2.02089773e-05
3.92           	-2.62438533e-07	9.57271999e-01	-4.69498593e-05	-2.37373682e-05	-2.32124911e-05
3.94           	-2.69392616e-07	9.55152450e-01	-5.59945445e-05	-2.82666649e-05	-2.77278796e-05
3.96           	-2.78017866e-07	9.53047894e-01	-3.91696285e-05	-1.98628321e-05	-1.93067964e-05
3.98           	-2.86113410e-07	9.50611892e-01	-3.94371667e-05	-2.00046968e-05	-1.94324700e-05
4              	-2.90436266e-07	9.49747739e-01	-4.54741072e-05	-2.30274899e-05	-2.24466173e-05
4.02           	-2.96050929e-07	9.46756971e-01	-5.42152954e-05	-2.74036986e-05	-2.68115968e-05
4.04           	-3.00515327e-07	9.44353988e-01	-5.17568598e-05	-2.61789452e-05	-2.55779146e-05
4.06           	-3.03830294e-07	9.43972555e-01	-4.92049042e-05	-2.49062824e-05	-2.42986218e-05
4.08           	-3.05153939e-07	9.42611910e-01	-5.78553274e-05	-2.92328176e-05	-2.86225097e-05
4.1            	-3.05866069e-07	9.40257604e-01	-4.75339374e-05	-2.40728348e-05	-2.34611026e-05
4.12           	-3.06077595e-07	9.37807321e-01	-4.76502597e-05	-2.41312074e-05	-2.35190523e-05
4.14           	-3.05754121e-07	9.35528292e-01	-4.94084741e-05	-2.50099912e-05	-2.43984829e-05
4.16           	-3.05153066e-07	9.33424337e-01	-3.41889917e-05	-1.73996489e-05	-1.67893428e-05
4.18           	-3.03974824e-07	9.30516624e-01	-5.48819953e-05	-2.77449725e-05	-2.71370228e-05
4.2            	-3.04147259e-07	9.27154542e-01	-3.57960676e-05	-1.82021811e-05	-1.75938865e-05
4.22           	-3.04571642e-07	9.26418721e-01	-5.91173033e-05	-2.98632233e-05	-2.92540800e-05
4.24           	-3.05822519e-07	9.24750842e-01	-5.47650945e-05	-2.76883698e-05	-2.70767248e-05
4.26           	-3.07599620e-07	9.22756445e-01	-5.58199583e-05	-2.82175788e-05	-2.76023795e-05
4.28           	-3.09381162e-07	9.20428547e-01	-5.07150557e-05	-2.56669090e-05	-2.50481467e-05
4.3            	-3.11240409e-07	9.18314183e-01	-5.53039021e-05	-2.79631915e-05	-2.73407107e-05
4.32           	-3.13313131e-07	9.17039421e-01	-5.42102601e-05	-2.74184432e-05	-2.67918169e-05
4.34           	-3.15456245e-07	9.15070898e-01	-5.67501331e-05	-2.86905228e-05	-2.80596103e-05
4.36           	-3.17608710e-07	9.13233855e-01	-5.85456259e-05	-2.95904217e-05	-2.89552043e-05
4.38           	-3.19761770e-07	9.10433833e-01	-4.79329072e-05	-2.42862154e-05	-2.36466918e-05
4.4            	-3.21313580e-07	9.07765237e-01	-4.86317174e-05	-2.46371723e-05	-2.39945451e-05
4.42           	-3.22604821e-07	9.05857203e-01	-6.36318034e-05	-3.21385065e-05	-3.14932969e-05
4.44           	-3.23645609e-07	9.04037789e-01	-6.36221962e-05	-3.21347437e-05	-3.14874525e-05
4.46           	-3.24188039e-07	9.02382903e-01	-5.35148178e-05	-2.70815969e-05	-2.64332209e-05
4.48           	-3.19300691e-07	9.00423795e-01	-5.31863342e-05	-2.69124678e-05	-2.62738664e-05
4.5            	-3.19721799e-07	8.98461043e-01	-5.65480042e-05	-2.85937239e-05	-2.79542803e-05
4.52           	-3.19592724e-07	8.95473851e-01	-5.84223814e-05	-2.95307834e-05	-2.88915980e-05
4.54           	-3.19639150e-07	8.95181800e-01	-4.75587143e-05	-2.40989963e-05	-2.34597180e-05
4.56           	-3.19622718e-07	8.93378143e-01	-7.23263832e-05	-3.64828143e-05	-3.58435689e-05
4.58           	-3.19638219e-07	8.91420791e-01	-5.14197950e-05	-2.60295357e-05	-2.53902593e-05
4.6            	-3.19622925e-07	8.89289439e-01	-5.39526762e-05	-2.72959610e-05	-2.66567152e-05
4.62           	-3.19539028e-07	8.87176485e-01	-6.02458398e-05	-3.04424589e-05	-2.98033808e-05
4.64           	-3.19504886e-07	8.85082468e-01	-6.25495444e-05	-3.15942771e-05	-3.09552673e-05
4.66           	-3.19484885e-07	8.82823056e-01	-7.20227163e-05	-3.63308430e-05	-3.56918733e-05
4.68           	-3.19653810e-07	8.81097024e-01	-6.19591775e-05	-3.12992426e-05	-3.06599349e-05
4.7            	-3.20019430e-07	8.79652602e-01	-6.48047049e-05	-3.27223719e-05	-3.20823330e-05
4.72           	-3.20563391e-07	8.77612780e-01	-6.99456633e-05	-3.52933951e-05	-3.46522683e-05
4.74           	-3.21399541e-07	8.75609960e-01	-5.35091737e-05	-2.70759864e-05	-2.64331873e-05
4.76           	-3.22357032e-07	8.73275745e-01	-8.88396547e-05	-4.47421844e-05	-4.40974703e-05
4.78           	-3.23619969e-07	8.71136823e-01	-5.91945951e-05	-2.99209175e-05	-2.92736776e-05
4.8            	-3.25000619e-07	8.69397162e-01	-6.62795664e-05	-3.34647838e-05	-3.28147826e-05
4.82           	-3.26589149e-07	8.67713820e-01	-6.54021677e-05	-3.30276730e-05	-3.23744947e-05
4.84           	-3.28324675e-07	8.66038701e-01	-6.95032755e-05	-3.50799624e-05	-3.44233131e-05
4.86           	-3.29235380e-07	8.63746668e-01	-6.72084535e-05	-3.39334621e-05	-3.32749914e-05
4.88           	-3.30002004e-07	8.60965904e-01	-6.73969055e-05	-3.40284548e-05	-3.33684508e-05
4.9            	-3.30810103e-07	8.60783467e-01	-6.90575902e-05	-3.48596052e-05	-3.41979850e-05
4.92           	-3.31713743e-07	8.59203670e-01	-7.24519594e-05	-3.65576934e-05	-3.58942659e-05
4.94           	-3.32771422e-07	8.57454976e-01	-6.90052937e-05	-3.48354183e-05	-3.41698754e-05
4.96           	-3.33976165e-07	8.55693799e-01	-6.95128034e-05	-3.50903779e-05	-3.44224255e-05
4.98           	-3.35331514e-07	8.53935129e-01	-6.85245814e-05	-3.45976222e-05	-3.39269592e-05
5              	-3.36718171e-07	8.52192746e-01	-8.01254428e-05	-4.03994396e-05	-3.97260032e-05
5.02           	-3.38254793e-07	8.50560027e-01	-7.58916119e-05	-3.82840607e-05	-3.76075511e-05
5.04           	-3.39857754e-07	8.49075192e-01	-7.90574932e-05	-3.98686043e-05	-3.91888888e-05
5.06           	-3.41574905e-07	8.47443248e-01	-7.42310894e-05	-3.74571196e-05	-3.67739698e-05
5.08           	-3.43363202e-07	8.45800209e-01	-7.47258581e-05	-3.77062922e-05	-3.70195658e-05
5.1            	-3.45160376e-07	8.44307405e-01	-7.95875736e-05	-4.01389472e-05	-3.94486264e-05
5.12           	-3.47068771e-07	8.42672429e-01	-7.54870831e-05	-3.80906103e-05	-3.73964728e-05
5.14           	-3.49207464e-07	8.40464978e-01	-7.37198408e-05	-3.72091279e-05	-3.65107130e-05
5.16           	-3.51425620e-07	8.39802078e-01	-8.60957573e-05	-4.33993043e-05	-4.26964530e-05
5.18           	-3.53835907e-07	8.38525522e-01	-8.02211017e-05	-4.04643868e-05	-3.97567149e-05
5.2            	-3.56430604e-07	8.37019331e-01	-7.55192710e-05	-3.81160661e-05	-3.74032049e-05
5.22           	-3.59076853e-07	8.35589644e-01	-8.90911951e-05	-4.49046744e-05	-4.41865207e-05
5.24           	-3.61922946e-07	8.34075255e-01	-7.43194505e-05	-3.75216482e-05	-3.67978023e-05
5.26           	-3.64938099e-07	8.32461545e-01	-7.57521233e-05	-3.82409997e-05	-3.75111235e-05
5.28           	-3.68153047e-07	8.30106701e-01	-7.42950291e-05	-3.75156676e-05	-3.67793615e-05
5.3            	-3.74233462e-07	8.30188582e-01	-7.71003816e-05	-3.89244242e-05	-3.81759573e-05
5.32           	-3.93708311e-07	8.29074953e-01	-6.53546256e-05	-3.30710211e-05	-3.22836045e-05
5.34           	-3.82631042e-07	8.27844555e-01	-8.56737818e-05	-4.32195220e-05	-4.24542599e-05
5.36           	-3.86955666e-07	8.26452066e-01	-7.15382122e-05	-3.61560618e-05	-3.53821504e-05
5.38           	-3.91108266e-07	8.24712751e-01	-7.29799217e-05	-3.68810691e-05	-3.60988526e-05
5.4            	-3.95136927e-07	8.23371194e-01	-8.11060267e-05	-4.09481503e-05	-4.01578764e-05
5.42           	-3.99367301e-07	8.22768522e-01	-8.24318392e-05	-4.16152869e-05	-4.08165523e-05
5.44           	-4.03656264e-07	8.21830069e-01	-8.23012974e-05	-4.15543050e-05	-4.07469925e-05
5.46           	-4.08332565e-07	8.21006879e-01	-7.74110034e-05	-3.91138343e-05	-3.82971691e-05
5.48           	-4.13222708e-07	8.20081083e-01	-8.69304010e-05	-4.38784232e-05	-4.30519778e-05
5.5            	-4.18343541e-07	8.18971924e-01	-8.03425123e-05	-4.05895997e-05	-3.97529126e-05
5.52           	-4.23629806e-07	8.17934385e-01	-9.42474094e-05	-4.75473345e-05	-4.67000749e-05
5.54           	-4.29219219e-07	8.16955600e-01	-7.44140391e-05	-3.76362388e-05	-3.67778004e-05
5.56           	-4.33797480e-07	8.15915132e-01	-7.50766213e-05	-3.79721081e-05	-3.71045132e-05
5.58           	-4.40327136e-07	8.14912867e-01	-7.59138711e-05	-3.83972627e-05	-3.75166084e-05
5.6            	-4.46998729e-07	8.13963001e-01	-7.59681583e-05	-3.84310779e-05	-3.75370804e-05
5.62           	-4.53713466e-07	8.13040848e-01	-7.52814611e-05	-3.80944440e-05	-3.71870171e-05
5.64           	-4.60400120e-07	8.12153902e-01	-7.42218060e-05	-3.75713031e-05	-3.66505029e-05
5.66           	-4.67020901e-07	8.11500777e-01	-7.33327564e-05	-3.71333991e-05	-3.61993573e-05
5.68           	-4.64059143e-07	8.10255794e-01	-7.27228861e-05	-3.68255022e-05	-3.58973839e-05
5.7            	-4.60184160e-07	8.09270396e-01	-7.08554924e-05	-3.58879304e-05	-3.49675620e-05
5.72           	-4.55544693e-07	8.08060256e-01	-7.11640156e-05	-3.60375525e-05	-3.51264631e-05
5.74           	-4.50284041e-07	8.06910413e-01	-6.95198250e-05	-3.52101965e-05	-3.43096285e-05
5.76           	-4.44467766e-07	8.07419763e-01	-6.90912310e-05	-3.49900833e-05	-3.41011477e-05
5.78           	-4.38285272e-07	8.06796930e-01	-7.13519401e-05	-3.61142553e-05	-3.52376848e-05
5.8            	-4.31675149e-07	8.06087478e-01	-7.21207234e-05	-3.64920369e-05	-3.56286866e-05
5.82           	-4.25217124e-07	8.05221034e-01	-6.52115919e-05	-3.30310131e-05	-3.21805788e-05
5.84           	-4.32661871e-07	8.04462372e-01	-6.59591688e-05	-3.34122463e-05	-3.25469225e-05
5.86           	-4.25639745e-07	8.03726856e-01	-6.35116176e-05	-3.21814485e-05	-3.13301690e-05
5.88           	-4.18832118e-07	8.03043729e-01	-7.63557607e-05	-3.85967125e-05	-3.77590482e-05
5.9            	-4.12370799e-07	8.02364422e-01	-6.56900985e-05	-3.32574200e-05	-3.24326784e-05
5.92           	-4.06116890e-07	8.01699449e-01	-8.30579712e-05	-4.19351025e-05	-4.11228687e-05
5.94           	-4.00318383e-07	8.01057520e-01	-5.37465750e-05	-2.72736059e-05	-2.64729691e-05
5.96           	-3.94766007e-07	8.00401491e-01	-5.85928036e-05	-2.96911678e-05	-2.89016358e-05
5.98           	-3.89387047e-07	7.99792196e-01	-6.31438767e-05	-3.19613254e-05	-3.11825513e-05
6              	-3.84160748e-07	7.99240457e-01	-6.32448792e-05	-3.20066003e-05	-3.12382788e-05
6.02           	-3.79027994e-07	7.98303326e-01	-6.37333824e-05	-3.22457192e-05	-3.14876632e-05
6.04           	-3.74031559e-07	7.97643239e-01	-6.45414165e-05	-3.26447398e-05	-3.18966767e-05
6.06           	-3.68607156e-07	7.97313290e-01	-5.24233053e-05	-2.65802598e-05	-2.58430455e-05
6.08           	-3.62698218e-07	7.96449814e-01	-6.01669360e-05	-3.04461662e-05	-2.97207698e-05
6.1            	-3.55886365e-07	7.95777824e-01	-6.10828914e-05	-3.08973321e-05	-3.01855594e-05
6.12           	-3.57366494e-07	7.95120597e-01	-5.98352230e-05	-3.02749780e-05	-2.95602450e-05
6.14           	-3.60950756e-07	7.94486415e-01	-5.88461892e-05	-2.97840454e-05	-2.90621439e-05
6.16           	-3.65670231e-07	7.93837082e-01	-5.57091016e-05	-2.82202210e-05	-2.74888806e-05
6.18           	-3.70334196e-07	7.93271153e-01	-6.92332267e-05	-3.49869475e-05	-3.42462791e-05
6.2            	-3.74788079e-07	7.92912941e-01	-7.26335635e-05	-3.66915698e-05	-3.59419937e-05
6.22           	-3.80235230e-07	7.92283205e-01	-4.90983713e-05	-2.49294209e-05	-2.41689504e-05