# Force coefficients
# liftDir      : (0.00000000e+00 1.00000000e+00 0.00000000e+00)
# dragDir      : (1.00000000e+00 0.00000000e+00 0.00000000e+00)
# pitchAxis    : (0.00000000e+00 0.00000000e+00 1.00000000e+00)
# magUInf      : 1.00000000e+00
# lRef         : 2.00000000e+00
# Aref         : 2.00000000e+00
# CofR         : (0.00000000e+00 0.00000000e+00 0.00000000e+00)
#              
# Time         	Cm             	Cd             	Cl             	Cl(f)          	Cl(r)          
0.02           	-1.50670392e-06	1.64690611e+02	1.99408680e-04	9.81976360e-05	1.01211044e-04
0.04           	2.64258433e-07	7.77317776e+00	-1.11705518e-04	-5.55885008e-05	-5.61170176e-05
0.06           	-6.81947232e-08	-1.10316779e+01	1.18446970e-04	5.91552901e-05	5.92916796e-05
0.08           	-4.32883961e-07	-6.30631192e+00	1.16664696e-04	5.78994638e-05	5.87652317e-05
0.1            	-6.39601852e-07	-1.35621833e+00	-3.60841679e-06	-2.44381025e-06	-1.16460654e-06
0.12           	-6.85426025e-07	1.26904299e+00	1.82949795e-05	8.46206373e-06	9.83291578e-06
0.14           	-6.65975637e-07	2.39260642e+00	-4.02300289e-05	-2.07809901e-05	-1.94490388e-05
0.16           	-6.15181847e-07	2.80271233e+00	-2.42121889e-05	-1.27212763e-05	-1.14909126e-05
0.18           	-5.57962366e-07	2.91368862e+00	-1.28855964e-05	-7.00076055e-06	-5.88483582e-06
0.2            	-5.03698987e-07	2.90677386e+00	-6.28618788e-06	-3.64679293e-06	-2.63939495e-06
0.22           	-4.56238410e-07	2.85932983e+00	-3.01143221e-06	-1.96195451e-06	-1.04947769e-06
0.24           	-4.15520705e-07	2.80080748e+00	-9.37441496e-07	-8.84241453e-07	-5.32000436e-08
0.26           	-3.80885899e-07	2.74118037e+00	-6.62261430e-07	-7.12016614e-07	4.97551839e-08
0.28           	-3.51739684e-07	2.68381437e+00	-2.83616724e-06	-1.76982330e-06	-1.06634394e-06
0.3            	-3.26551913e-07	2.63029687e+00	-1.86336930e-06	-1.25823656e-06	-6.05132736e-07
0.32           	-3.04499120e-07	2.58036325e+00	-1.50583054e-06	-1.05741439e-06	-4.48416151e-07
0.34           	-2.84992361e-07	2.53373756e+00	-1.17004261e-06	-8.70013664e-07	-3.00028943e-07
0.36           	-2.67622739e-07	2.48974757e+00	-9.54924916e-07	-7.45085197e-07	-2.09839719e-07
0.38           	-2.52026224e-07	2.44819250e+00	-7.49758591e-07	-6.26905520e-07	-1.22853071e-07
0.4            	-2.37989788e-07	2.40923616e+00	-7.58517682e-07	-6.17248629e-07	-1.41269053e-07
0.42           	-2.25281446e-07	2.37281479e+00	-7.40017864e-07	-5.95290378e-07	-1.44727486e-07
0.44           	-2.13699008e-07	2.33878790e+00	-6.65761785e-07	-5.46579900e-07	-1.19181885e-07
0.46           	-2.03121172e-07	2.30726537e+00	-5.77724800e-07	-4.91983572e-07	-8.57412285e-08
0.48           	-1.93481477e-07	2.27809587e+00	-5.91925423e-07	-4.89444189e-07	-1.02481235e-07
0.5            	-1.84470063e-07	2.25079109e+00	-8.11568716e-07	-5.90254421e-07	-2.21314295e-07
0.52           	-1.76172861e-07	2.22506457e+00	-7.26050017e-07	-5.39197870e-07	-1.86852147e-07
0.54           	-1.68504247e-07	2.20097722e+00	-7.05156951e-07	-5.21082722e-07	-1.84074228e-07
0.56           	-1.61376414e-07	2.17847911e+00	-7.15249289e-07	-5.19001058e-07	-1.96248230e-07
0.58           	-1.54745467e-07	2.15740825e+00	-7.02966212e-07	-5.06228573e-07	-1.96737639e-07
0.6            	-1.48545355e-07	2.13768105e+00	-7.28096860e-07	-5.12593785e-07	-2.15503075e-07
0.62           	-1.42852554e-07	2.11902263e+00	-6.32091204e-07	-4.58898156e-07	-1.73193048e-07
0.64           	-1.37468521e-07	2.10136854e+00	-6.59741991e-07	-4.67339516e-07	-1.92402475e-07
0.66           	-1.32491565e-07	2.08497988e+00	-6.34041546e-07	-4.49512338e-07	-1.84529208e-07
0.68           	-1.27749237e-07	2.06940311e+00	-1.73869576e-07	-2.14684025e-07	4.08144485e-08
0.7            	-1.23096643e-07	2.05481076e+00	-1.85207006e-07	-2.15700146e-07	3.04931402e-08
0.72           	-1.18742091e-07	2.04127969e+00	-3.39137925e-07	-2.88311054e-07	-5.08268715e-08
0.74           	-1.14341880e-07	2.02861054e+00	-7.15161525e-07	-4.71922643e-07	-2.43238882e-07
0.76           	-1.10142617e-07	2.01656619e+00	-4.13334971e-07	-3.16810102e-07	-9.65248688e-08
0.78           	-1.06256686e-07	2.00518733e+00	-4.35195927e-07	-3.23854649e-07	-1.11341278e-07
0.8            	-1.02408783e-07	1.99444372e+00	-4.28085837e-07	-3.16451702e-07	-1.11634136e-07
0.82           	-9.87406153e-08	1.98429411e+00	-3.83898595e-07	-2.90689913e-07	-9.32086822e-08
0.84           	-9.51314669e-08	1.97483686e+00	-2.97268665e-07	-2.43765799e-07	-5.35028655e-08
0.86           	-9.13504057e-08	1.96593714e+00	1.92453831e-08	-8.17277141e-08	1.00973097e-07
0.88           	-8.93634869e-08	1.95751829e+00	-4.18720601e-07	-2.98723787e-07	-1.19996813e-07
0.9            	-1.64025296e-07	1.94967447e+00	-4.66422415e-07	-3.97236503e-07	-6.91859114e-08
0.92           	-5.01225632e-08	1.94214061e+00	-4.82145878e-08	-7.42298571e-08	2.60152693e-08
0.94           	-9.54019435e-08	1.93503304e+00	-5.80030355e-07	-3.85417121e-07	-1.94613234e-07
0.96           	-1.64571449e-07	1.92828249e+00	-1.30757215e-06	-8.18357523e-07	-4.89214625e-07
0.98           	-6.35065763e-07	1.92193714e+00	-2.47868129e-06	-1.87440641e-06	-6.04274882e-07
1              	2.45465985e-07	1.91600349e+00	-9.25824671e-07	-2.17446350e-07	-7.08378321e-07
1.02           	3.70001887e-07	1.91020750e+00	9.68662350e-07	8.54333062e-07	1.14329288e-07
1.04           	5.17170181e-07	1.90483370e+00	1.50514570e-06	1.26974303e-06	2.35402668e-07
1.06           	4.73661599e-07	1.89980773e+00	2.02401116e-06	1.48566718e-06	5.38343983e-07
1.08           	4.23551477e-07	1.89514857e+00	1.52618864e-06	1.18664580e-06	3.39542842e-07
1.1            	4.31566348e-07	1.89068833e+00	1.86081472e-06	1.36197371e-06	4.98841013e-07
1.12           	9.82992756e-07	1.88638377e+00	3.29564424e-06	2.63081487e-06	6.64829362e-07
1.14           	1.55141691e-06	1.88235888e+00	5.56320416e-06	4.33301899e-06	1.23018517e-06
1.16           	1.59838860e-06	1.87870700e+00	5.83441709e-06	4.51559715e-06	1.31881995e-06
1.18           	7.79671618e-07	1.87486005e+00	2.56610727e-06	2.06272525e-06	5.03382015e-07
1.2            	7.00240238e-07	1.87150797e+00	1.38150641e-06	1.39099344e-06	-9.48703557e-09
1.22           	1.03179189e-06	1.86815661e+00	2.76301529e-06	2.41329954e-06	3.49715757e-07
1.24           	1.28174463e-06	1.86514567e+00	3.92471340e-06	3.24410133e-06	6.80612065e-07
1.26           	1.44020091e-06	1.86229160e+00	4.08146953e-06	3.48093568e-06	6.00533853e-07
1.28           	1.58031217e-06	1.85961463e+00	6.11125221e-06	4.63593828e-06	1.47531393e-06
1.3            	1.70017847e-06	1.85700933e+00	6.66099568e-06	5.03067631e-06	1.63031936e-06
1.32           	1.68271563e-06	1.85475317e+00	7.03904580e-06	5.20223853e-06	1.83680727e-06
1.34           	-1.42313382e-06	1.85199794e+00	-3.76110194e-06	-3.30368479e-06	-4.57417149e-07
1.36           	-1.36097699e-06	1.84988324e+00	-3.45034047e-06	-3.08614723e-06	-3.64193249e-07
1.38           	-1.16259040e-06	1.84777590e+00	-2.99621450e-06	-2.66069765e-06	-3.35516846e-07
1.4            	-1.24278493e-06	1.84580382e+00	-3.19503035e-06	-2.84030011e-06	-3.54730239e-07
1.42           	-1.18440457e-06	1.84396757e+00	-3.15127378e-06	-2.76004146e-06	-3.91232324e-07
1.44           	-1.06473623e-06	1.84223818e+00	-2.75173949e-06	-2.44060597e-06	-3.11133517e-07
1.46           	-9.92743273e-07	1.84057948e+00	-2.55779785e-06	-2.27164220e-06	-2.86155653e-07
1.48           	-9.23061893e-07	1.83914409e+00	-2.38823694e-06	-2.11718036e-06	-2.71056575e-07
1.5            	-8.54993451e-07	1.83748384e+00	-2.26110559e-06	-1.98554625e-06	-2.75559344e-07
1.52           	-7.82428371e-07	1.83603108e+00	-2.14848994e-06	-1.85667334e-06	-2.91816599e-07
1.54           	-6.97354549e-07	1.83469366e+00	-1.98592510e-06	-1.69031710e-06	-2.95607999e-07
1.56           	-6.51522049e-07	1.83333197e+00	-1.91554247e-06	-1.60929328e-06	-3.06249185e-07
1.58           	-5.77828055e-07	1.83218892e+00	-2.09494538e-06	-1.62530074e-06	-4.69644633e-07
1.6            	-5.05708624e-07	1.83103165e+00	-1.83082172e-06	-1.42111948e-06	-4.09702236e-07
1.62           	-4.35519383e-07	1.82990992e+00	-1.58219508e-06	-1.22661692e-06	-3.55578156e-07
1.64           	-3.66647138e-07	1.82890709e+00	-1.37588303e-06	-1.05458865e-06	-3.21294379e-07
1.66           	-2.97645570e-07	1.82796219e+00	-1.10217986e-06	-8.48735499e-07	-2.53444359e-07
1.68           	-2.30365125e-07	1.82689083e+00	-8.48920568e-07	-6.54825409e-07	-1.94095159e-07
1.7            	-1.68524827e-07	1.82587512e+00	-5.55925412e-07	-4.46487533e-07	-1.09437879e-07
1.72           	-1.04436454e-07	1.82501265e+00	-4.31395158e-07	-3.20134033e-07	-1.11261125e-07
1.74           	-4.78904808e-08	1.82414349e+00	-2.94418658e-07	-1.95099810e-07	-9.93188484e-08
1.76           	3.53314546e-09	1.82326985e+00	-4.20121964e-08	-1.74729527e-08	-2.45392437e-08
1.78           	4.77944572e-08	1.82242976e+00	3.29313346e-07	2.12451130e-07	1.16862216e-07
1.8            	8.43627893e-08	1.82165345e+00	2.86412980e-07	2.27569279e-07	5.88437007e-08
1.82           	1.21282525e-07	1.82088309e+00	4.72668022e-07	3.57616536e-07	1.15051487e-07
1.84           	1.49143474e-07	1.82020916e+00	6.36340938e-07	4.67313943e-07	1.69026995e-07
1.86           	1.51590221e-07	1.81945683e+00	7.23945496e-07	5.13562969e-07	2.10382527e-07
1.88           	1.43374530e-07	1.81876068e+00	6.29428407e-07	4.58088734e-07	1.71339673e-07
1.9            	3.84887437e-08	1.81822153e+00	6.67906865e-07	3.72442176e-07	2.95464689e-07
1.92           	-6.87262524e-08	1.81739723e+00	1.57860779e-07	1.02041371e-08	1.47656642e-07
1.94           	-1.62348229e-07	1.81674519e+00	9.07134125e-08	-1.16991523e-07	2.07704935e-07
1.96           	-2.34484218e-07	1.81606818e+00	-6.02706128e-07	-5.35837282e-07	-6.68688461e-08
1.98           	-2.87430173e-07	1.81551038e+00	-7.26292823e-07	-6.50576584e-07	-7.57162385e-08
2              	-3.16619510e-07	1.81488596e+00	-9.30275482e-07	-7.81757251e-07	-1.48518232e-07
2.02           	-2.55440591e-07	1.81426794e+00	-7.29608506e-07	-6.20244843e-07	-1.09363662e-07
2.04           	-1.79078275e-07	1.81391023e+00	-6.92093989e-07	-5.25125269e-07	-1.66968720e-07
2.06           	-1.08696221e-07	1.81318076e+00	-6.62951500e-07	-4.40171971e-07	-2.22779529e-07
2.08           	-5.29811107e-08	1.81261436e+00	-2.16895145e-07	-1.61428683e-07	-5.54664617e-08
2.1            	-2.38186709e-08	1.81207273e+00	-2.53048811e-07	-1.50343077e-07	-1.02705735e-07
2.12           	-5.03098683e-09	1.81156033e+00	-1.44750333e-07	-7.74061534e-08	-6.73441797e-08
2.14           	1.81867874e-08	1.81125739e+00	-6.32744167e-08	-1.34504209e-08	-4.98239957e-08
2.16           	3.67781050e-08	1.81049922e+00	-2.69162561e-08	2.33199770e-08	-5.02362331e-08
2.18           	5.03575501e-08	1.80985854e+00	4.39899967e-07	2.70307533e-07	1.69592433e-07
2.2            	5.93561224e-08	1.80933236e+00	1.62911393e-07	1.40811819e-07	2.20995739e-08
2.22           	6.45134975e-08	1.80879325e+00	3.66966415e-07	2.47996705e-07	1.18969710e-07
2.24           	6.64185307e-08	1.80856264e+00	4.13280520e-07	2.73058791e-07	1.40221729e-07
2.26           	6.58363542e-08	1.80785268e+00	2.35502795e-07	1.83587752e-07	5.19150434e-08
2.28           	6.35122333e-08	1.80733206e+00	6.83794367e-07	4.05409417e-07	2.78384950e-07
2.3            	5.98415059e-08	1.80686274e+00	3.47699766e-07	2.33691389e-07	1.14008377e-07
2.32           	5.51515342e-08	1.80628312e+00	3.43342217e-07	2.26822642e-07	1.16519574e-07
2.34           	5.03340064e-08	1.80578901e+00	4.45570935e-07	2.73119474e-07	1.72451461e-07
2.36           	4.52802618e-08	1.80548345e+00	3.62201240e-07	2.26380882e-07	1.35820358e-07
2.38           	4.01210253e-08	1.80477941e+00	1.63349338e-07	1.21795694e-07	4.15536437e-08
2.4            	3.49413846e-08	1.80425253e+00	5.31535086e-07	3.00708928e-07	2.30826158e-07
2.42           	2.97244801e-08	1.80374086e+00	2.53773314e-07	1.56611137e-07	9.71621768e-08
2.44           	2.44752680e-08	1.80325485e+00	2.78433349e-07	1.63691943e-07	1.14741407e-07
2.46           	1.91381920e-08	1.80272769e+00	2.91901326e-07	1.65088855e-07	1.26812471e-07
2.48           	1.37134618e-08	1.80227247e+00	3.50914900e-07	1.89170912e-07	1.61743988e-07
2.5            	8.15125827e-09	1.80175858e+00	-4.69350400e-07	-2.26523942e-07	-2.42826458e-07
2.52           	2.45276458e-09	1.80124638e+00	-3.40496669e-08	-1.45720689e-08	-1.94775980e-08
2.54           	-3.33517791e-09	1.80077383e+00	-1.46606213e-07	-7.66382844e-08	-6.99679286e-08
2.56           	-9.22785511e-09	1.80029394e+00	-2.26067715e-07	-1.22261712e-07	-1.03806002e-07
2.58           	-1.51698250e-08	1.79980644e+00	-2.52453622e-07	-1.41396636e-07	-1.11056986e-07
2.6            	-2.16476303e-08	1.79936359e+00	-2.51231299e-07	-1.47263280e-07	-1.03968019e-07
2.62           	-2.81674888e-08	1.79880370e+00	-3.33954304e-07	-1.95144641e-07	-1.38809663e-07
2.64           	-3.46397510e-08	1.79831107e+00	-2.86248281e-07	-1.77763892e-07	-1.08484390e-07
2.66           	-4.10094554e-08	1.79793302e+00	-3.53901310e-07	-2.17960111e-07	-1.35941200e-07
2.68           	-4.72233983e-08	1.79741034e+00	-3.92620802e-07	-2.43533799e-07	-1.49087003e-07
2.7            	-5.32814891e-08	1.79680132e+00	-3.06129790e-07	-2.06346384e-07	-9.97834060e-08
2.72           	-5.91815066e-08	1.79636400e+00	-3.19636082e-07	-2.18999548e-07	-1.00636534e-07
2.74           	-6.49411452e-08	1.79596154e+00	-4.09898988e-07	-2.69890639e-07	-1.40008349e-07
2.76           	-7.05684131e-08	1.79552881e+00	-3.89282663e-07	-2.65209744e-07	-1.24072918e-07
2.78           	-7.58968982e-08	1.79510756e+00	-4.70848503e-07	-3.11321150e-07	-1.59527353e-07
2.8            	-8.06866149e-08	1.79469278e+00	-5.13371824e-07	-3.37372527e-07	-1.75999297e-07
2.82           	-8.46474246e-08	1.79430082e+00	-4.75875864e-07	-3.22585356e-07	-1.53290507e-07
2.84           	-8.77163234e-08	1.79391482e+00	-4.61138377e-07	-3.18285512e-07	-1.42852865e-07
2.86           	-8.99794164e-08	1.79361936e+00	-4.54576049e-07	-3.17267441e-07	-1.37308608e-07
2.88           	-9.14369928e-08	1.79327503e+00	-4.08079212e-07	-2.95476599e-07	-1.12602613e-07
2.9            	-9.23427393e-08	1.79296828e+00	-3.90522713e-07	-2.87604096e-07	-1.02918617e-07
2.92           	-9.26970425e-08	1.79270400e+00	-3.95025038e-07	-2.90209561e-07	-1.04815476e-07
2.94           	-9.24706805e-08	1.79239041e+00	-3.86917814e-07	-2.85929587e-07	-1.00988226e-07
2.96           	-9.15980896e-08	1.79215208e+00	-2.55605771e-07	-2.19400975e-07	-3.62047957e-08
2.98           	-8.98991443e-08	1.79199319e+00	-2.39156348e-07	-2.09477318e-07	-2.96790298e-08
3              	-8.73737237e-08	1.79167789e+00	-3.30414966e-07	-2.52581207e-07	-7.78337596e-08
3.02           	-8.39765650e-08	1.79148056e+00	-1.54549684e-07	-1.61251407e-07	6.70172280e-09
3.04           	-7.72021788e-08	1.79134377e+00	-4.45034645e-07	-2.99719501e-07	-1.45315144e-07
3.06           	-6.72180539e-08	1.79127594e+00	-4.32463064e-07	-2.83449586e-07	-1.49013478e-07
3.08           	-5.49138012e-08	1.79114605e+00	-3.07306570e-07	-2.08567086e-07	-9.87394838e-08
3.1            	-4.13882574e-08	1.79110562e+00	-4.57202896e-07	-2.69989705e-07	-1.87213191e-07
3.12           	-2.78784149e-08	1.79113475e+00	-3.32637434e-07	-1.94197132e-07	-1.38440302e-07
3.14           	-1.53083758e-08	1.79093012e+00	-3.03348354e-07	-1.66982553e-07	-1.36365801e-07
3.16           	-3.93440228e-09	1.79092592e+00	-1.01967179e-07	-5.49179918e-08	-4.70491873e-08
3.18           	6.10151132e-09	1.79092586e+00	-1.98994807e-07	-9.33958923e-08	-1.05598915e-07
3.2            	1.45967000e-08	1.79094645e+00	-8.03157645e-08	-2.55611823e-08	-5.47545822e-08
3.22           	2.16968017e-08	1.79098338e+00	1.13842131e-07	7.86178674e-08	3.52242639e-08
3.24           	2.75396243e-08	1.79100971e+00	1.60716754e-07	1.07898001e-07	5.28187527e-08
3.26           	3.20363038e-08	1.79110822e+00	1.08446122e-07	8.62593648e-08	2.21867572e-08
3.28           	3.53416119e-08	1.79120183e+00	1.79654054e-07	1.25168639e-07	5.44854149e-08
3.3            	3.77084961e-08	1.79132571e+00	1.96987549e-07	1.36202270e-07	6.07852782e-08
3.32           	3.93644050e-08	1.79159292e+00	2.30506263e-07	1.54617536e-07	7.58887263e-08
3.34           	4.04369919e-08	1.79149469e+00	1.73571239e-07	1.27222611e-07	4.63486274e-08
3.36           	4.09693559e-08	1.79160803e+00	3.51791927e-07	2.16865319e-07	1.34926608e-07
3.38           	4.11461885e-08	1.79177436e+00	1.83773316e-07	1.33032847e-07	5.07404696e-08
3.4            	4.10852156e-08	1.79198436e+00	2.00629799e-07	1.41400115e-07	5.92296841e-08
3.42           	4.08641280e-08	1.79223901e+00	1.98673133e-07	1.40200694e-07	5.84724384e-08
3.44           	4.04782853e-08	1.79239568e+00	1.59064315e-07	1.20010443e-07	3.90538721e-08
3.46           	4.00265408e-08	1.79251822e+00	2.37424712e-07	1.58738897e-07	7.86858152e-08
3.48           	3.93384479e-08	1.79268680e+00	3.08206259e-07	1.93441578e-07	1.14764682e-07
3.5            	3.85929870e-08	1.79287919e+00	1.48161254e-07	1.12673614e-07	3.54876401e-08
3.52           	3.79395617e-08	1.79315138e+00	2.22450947e-07	1.49165035e-07	7.32859121e-08
3.54           	3.73526018e-08	1.79334985e+00	2.49071124e-07	1.61888164e-07	8.71829601e-08
3.56           	3.68271223e-08	1.79354187e+00	2.54946715e-07	1.64300480e-07	9.06462352e-08
3.58           	3.63021199e-08	1.79374061e+00	2.73367620e-07	1.72985930e-07	1.00381690e-07
3.6            	3.57828853e-08	1.79392867e+00	2.70614662e-07	1.71090216e-07	9.95244459e-08
3.62           	3.53262025e-08	1.79409021e+00	2.76983973e-07	1.73818189e-07	1.03165784e-07
3.64           	3.48485113e-08	1.79425375e+00	1.96985518e-07	1.33341270e-07	6.36442475e-08
3.66           	3.43725318e-08	1.79441140e+00	1.15091426e-07	9.19182450e-08	2.31731814e-08
3.68           	3.39366323e-08	1.79453063e+00	5.29595616e-08	6.04164131e-08	-7.45685148e-09
3.7            	3.35519999e-08	1.79465175e+00	5.67937025e-08	6.19488511e-08	-5.15514861e-09
3.72           	3.32104504e-08	1.79484768e+00	1.09868416e-07	8.81446583e-08	2.17237575e-08
3.74           	3.28696415e-08	1.79475379e+00	6.87118331e-08	6.72255581e-08	1.48627502e-09
3.76           	3.25212800e-08	1.79465759e+00	4.58229739e-08	5.54327669e-08	-9.60979303e-09
3.78           	3.21934115e-08	1.79461967e+00	6.90695606e-09	3.56468896e-08	-2.87399335e-08
3.8            	3.18876127e-08	1.79458213e+00	3.86540824e-09	3.38203169e-08	-2.99549086e-08
3.82           	3.15910696e-08	1.79454708e+00	-2.41533182e-11	3.15789929e-08	-3.16031463e-08
3.84           	3.13047402e-08	1.79448253e+00	1.59246070e-08	3.92670437e-08	-2.33424366e-08
3.86           	3.10119909e-08	1.79436886e+00	-1.82048846e-07	-6.00124321e-08	-1.22036414e-07
3.88           	3.07683425e-08	1.79421617e+00	-9.65621461e-08	-1.75127305e-08	-7.90494156e-08
3.9            	3.05587434e-08	1.79401526e+00	-3.65329845e-08	1.22922511e-08	-4.88252356e-08
3.92           	3.03661258e-08	1.79374605e+00	-1.90154452e-07	-6.47111002e-08	-1.25443352e-07
3.94           	3.01823117e-08	1.79345004e+00	-4.93019225e-09	2.77172156e-08	-3.26474079e-08
3.96           	2.99829037e-08	1.79307027e+00	2.40029306e-08	4.19843691e-08	-1.79814384e-08
3.98           	2.98025443e-08	1.79264059e+00	3.09556872e-08	4.52803879e-08	-1.43247007e-08
4              	2.96233862e-08	1.79213789e+00	6.78301292e-08	6.35384508e-08	4.29167843e-09
4.02           	2.94415653e-08	1.79157714e+00	6.45410827e-08	6.17121066e-08	2.82897603e-09
4.04           	2.92561690e-08	1.79100397e+00	4.94206833e-08	5.39665106e-08	-4.54582732e-09
4.06           	2.90683591e-08	1.79037403e+00	6.09936655e-08	5.95651919e-08	1.42847365e-09
4.08           	2.88835708e-08	1.78976622e+00	6.18951835e-08	5.98311625e-08	2.06402093e-09
4.1            	2.86887825e-08	1.78899016e+00	3.96927699e-08	4.85351674e-08	-8.84239751e-09
4.12           	2.85057323e-08	1.78824103e+00	1.42311192e-07	9.96613282e-08	4.26498637e-08
4.14           	2.83216738e-08	1.78747820e+00	1.07990295e-07	8.23168212e-08	2.56734736e-08
4.16           	2.81347137e-08	1.78670301e+00	9.80558451e-08	7.71626362e-08	2.08932089e-08
4.18           	2.79517511e-08	1.78588757e+00	3.96560022e-08	4.77797522e-08	-8.12375000e-09
4.2            	2.77626135e-08	1.78505137e+00	1.73344612e-07	1.14434919e-07	5.89096925e-08
4.22           	2.75173209e-08	1.78419272e+00	2.16218372e-07	1.35626507e-07	8.05918653e-08
4.24           	2.91256492e-08	1.78331819e+00	1.41527231e-07	9.98892645e-08	4.16379661e-08
4.26           	3.25153890e-08	1.78242849e+00	1.55894106e-07	1.10462442e-07	4.54316642e-08
4.28           	3.72280499e-08	1.78152441e+00	7.85363798e-08	7.64962398e-08	2.04013998e-09
4.3            	4.27829239e-08	1.78059610e+00	1.04527464e-06	5.65420242e-07	4.79854394e-07
4.32           	4.85953454e-08	1.77966394e+00	6.69026357e-08	8.20466633e-08	-1.51440276e-08
4.34           	5.42782558e-08	1.77872852e+00	2.05264039e-07	1.56910275e-07	4.83537638e-08
4.36           	5.96739878e-08	1.77785532e+00	3.04079111e-07	2.11713544e-07	9.23655679e-08
4.38           	6.46786205e-08	1.77682669e+00	1.67981570e-07	1.48669406e-07	1.93121645e-08
4.4            	6.92795237e-08	1.77587293e+00	-5.29354594e-07	-1.95397773e-07	-3.33956821e-07
4.42           	7.37070260e-08	1.77489188e+00	1.25834947e-06	7.02881759e-07	5.55467707e-07
4.44           	7.79811344e-08	1.77392454e+00	1.65317188e-07	1.60639728e-07	4.67745955e-09
4.46           	8.21212795e-08	1.77298940e+00	2.94176731e-07	2.29209645e-07	6.49670857e-08
4.48           	8.61742061e-08	1.77197320e+00	2.97369761e-07	2.34859087e-07	6.25106744e-08
4.5            	9.01592818e-08	1.77097696e+00	3.81183308e-07	2.80750936e-07	1.00432372e-07
4.52           	9.40589694e-08	1.76999418e+00	4.02790091e-07	2.95454015e-07	1.07336076e-07
4.54           	9.70746083e-08	1.76901358e+00	4.13949453e-07	3.04049335e-07	1.09900118e-07
4.56           	9.94811162e-08	1.76802882e+00	4.25649434e-07	3.12305833e-07	1.13343601e-07
4.58           	1.01412635e-07	1.76704637e+00	4.21495143e-07	3.12160207e-07	1.09334936e-07
4.6            	1.02991744e-07	1.76605874e+00	3.93003789e-07	2.99493639e-07	9.35101500e-08
4.62           	1.04302637e-07	1.76508256e+00	4.11782609e-07	3.10193942e-07	1.01588667e-07
4.64           	1.05406577e-07	1.76410681e+00	3.86293823e-07	2.98553489e-07	8.77403343e-08
4.66           	1.06345101e-07	1.76316019e+00	3.65946107e-07	2.89318155e-07	7.66279519e-08
4.68           	1.07144361e-07	1.76216474e+00	3.83042673e-07	2.98665697e-07	8.43769757e-08
4.7            	1.07819906e-07	1.76121804e+00	3.48778877e-07	2.82209345e-07	6.65695321e-08
4.72           	1.08350366e-07	1.76030705e+00	3.25604456e-07	2.71152594e-07	5.44518619e-08
4.74           	1.08765022e-07	1.75922266e+00	3.83596215e-07	3.00563130e-07	8.30330857e-08
4.76           	1.09278823e-07	1.75823565e+00	4.96143869e-07	3.57350758e-07	1.38793111e-07
4.78           	1.09352651e-07	1.75726580e+00	-9.62522840e-08	6.12265088e-08	-1.57478793e-07
4.8            	1.08764044e-07	1.75630150e+00	3.58609180e-07	2.88068633e-07	7.05405462e-08
4.82           	1.07290287e-07	1.75534190e+00	3.78534882e-07	2.96557728e-07	8.19771538e-08
4.84           	1.04814029e-07	1.75438347e+00	4.92330859e-07	3.50979459e-07	1.41351400e-07
4.86           	1.01351485e-07	1.75346058e+00	3.66274467e-07	2.84488719e-07	8.17857489e-08
4.88           	9.69739460e-08	1.75249078e+00	-7.03078480e-08	6.18200220e-08	-1.32127870e-07
4.9            	9.18367224e-08	1.75154088e+00	-1.82817698e-07	4.27873354e-10	-1.83245572e-07
4.92           	8.61726544e-08	1.75059537e+00	-2.54112149e-07	-4.08834202e-08	-2.13228729e-07
4.94           	8.01102202e-08	1.74965468e+00	-5.81206560e-07	-2.10493060e-07	-3.70713500e-07
4.96           	7.38200733e-08	1.74871701e+00	7.62946448e-09	7.76348055e-08	-7.00053411e-08
4.98           	6.74134264e-08	1.74778291e+00	-6.41209136e-08	3.53529696e-08	-9.94738832e-08
5              	6.09847578e-08	1.74685232e+00	-1.85193233e-07	-3.16118588e-08	-1.53581374e-07
5.02           	5.46110620e-08	1.74592412e+00	-3.14713741e-07	-1.02745809e-07	-2.11967933e-07
5.04           	4.83380428e-08	1.74499696e+00	-6.35915281e-07	-2.69619598e-07	-3.66295683e-07
5.06           	4.22147933e-08	1.74406998e+00	-7.01767138e-07	-3.08668776e-07	-3.93098362e-07
5.08           	3.62677870e-08	1.74313904e+00	-9.13955373e-07	-4.20709900e-07	-4.93245474e-07
5.1            	3.05037398e-08	1.74212809e+00	-8.26184813e-07	-3.82588667e-07	-4.43596146e-07
5.12           	2.49431462e-08	1.74134115e+00	-4.58046698e-07	-2.04080203e-07	-2.53966495e-07
5.14           	1.95723270e-08	1.74046491e+00	-8.24676288e-07	-3.92765817e-07	-4.31910471e-07
5.16           	1.43943923e-08	1.73956331e+00	-6.53008521e-07	-3.12109868e-07	-3.40898653e-07
5.18           	9.39221413e-09	1.73866777e+00	-6.59838216e-07	-3.20526894e-07	-3.39311322e-07
5.2            	4.55296671e-09	1.73777177e+00	-9.12718661e-07	-4.51806364e-07	-4.60912297e-07
5.22           	-1.33905880e-10	1.73687919e+00	-6.61568096e-07	-3.30917954e-07	-3.30650142e-07
5.24           	-4.67005523e-09	1.73599172e+00	-9.80539992e-07	-4.94940051e-07	-4.85599941e-07
5.26           	-9.07148574e-09	1.73510817e+00	-1.43681230e-06	-7.27477635e-07	-7.09334663e-07
5.28           	-1.33224462e-08	1.73422721e+00	-1.84669121e-06	-9.36668053e-07	-9.10023161e-07
5.3            	-1.74179421e-08	1.73334470e+00	-2.02106751e-06	-1.02795170e-06	-9.93115814e-07
5.32           	-2.13376871e-08	1.73253716e+00	-1.73176704e-06	-8.87221207e-07	-8.44545832e-07
5.34           	-2.51116702e-08	1.73173653e+00	-2.18884571e-06	-1.11953452e-06	-1.06931118e-06
5.36           	-2.87598335e-08	1.73104813e+00	-2.04285333e-06	-1.05018650e-06	-9.92666833e-07
5.38           	-3.22977087e-08	1.72977785e+00	-1.94110596e-06	-1.00285069e-06	-9.38255269e-07
5.4            	-3.56752187e-08	1.72888712e+00	-1.71085945e-06	-8.91104942e-07	-8.19754504e-07
5.42           	-3.89953879e-08	1.72806410e+00	-2.43853163e-06	-1.25826120e-06	-1.18027043e-06
5.44           	-4.22095181e-08	1.72722477e+00	-1.60660935e-06	-8.45514192e-07	-7.61095156e-07
5.46           	-4.53365395e-08	1.72638613e+00	-2.31858900e-06	-1.20463104e-06	-1.11395796e-06
5.48           	-4.83866750e-08	1.72554673e+00	-1.94238604e-06	-1.01957969e-06	-9.22806345e-07
5.5            	-5.13518409e-08	1.72471113e+00	-1.88822011e-06	-9.95461895e-07	-8.92758213e-07
5.52           	-5.42397204e-08	1.72388475e+00	-1.69861636e-06	-9.03547898e-07	-7.95068457e-07
5.54           	-5.70700459e-08	1.72305651e+00	-1.60405664e-06	-8.59098365e-07	-7.44958273e-07
5.56           	-5.98560234e-08	1.72223177e+00	-1.70933510e-06	-9.14523572e-07	-7.94811525e-07
5.58           	-6.25790493e-08	1.72141874e+00	-1.83604854e-06	-9.80603318e-07	-8.55445219e-07
5.6            	-6.52326799e-08	1.72060291e+00	-1.61084336e-06	-8.70654360e-07	-7.40189000e-07
5.62           	-6.78255926e-08	1.71976143e+00	-1.87170158e-06	-1.00367638e-06	-8.68025195e-07
5.64           	-7.03800980e-08	1.71909056e+00	-2.05943543e-06	-1.10009781e-06	-9.59337617e-07
5.66           	-7.28513312e-08	1.71811248e+00	-2.03038047e-06	-1.08804157e-06	-9.42338905e-07
5.68           	-7.52892452e-08	1.71728173e+00	-2.55422373e-06	-1.35240111e-06	-1.20182262e-06
5.7            	-7.76482257e-08	1.71647013e+00	-2.21841611e-06	-1.18685628e-06	-1.03155983e-06
5.72           	-7.98471040e-08	1.71566416e+00	-2.32150418e-06	-1.24059919e-06	-1.08090499e-06
5.74           	-8.17503765e-08	1.71486051e+00	-2.26936957e-06	-1.21643516e-06	-1.05293441e-06
5.76           	-8.33273967e-08	1.71405947e+00	-2.20232285e-06	-1.18448882e-06	-1.01783403e-06
5.78           	-8.45619531e-08	1.71325927e+00	-2.13341312e-06	-1.15126851e-06	-9.82144607e-07
5.8            	-8.54756089e-08	1.71246151e+00	-2.03289262e-06	-1.10192192e-06	-9.30970703e-07
5.82           	-8.61253345e-08	1.71166326e+00	-1.97022107e-06	-1.07123587e-06	-8.98985202e-07
5.84           	-8.65503320e-08	1.71085264e+00	-1.92038556e-06	-1.04674311e-06	-8.73642447e-07
5.86           	-8.68272167e-08	1.71003358e+00	-1.96587455e-06	-1.06976449e-06	-8.96110058e-07
5.88           	-8.70076490e-08	1.70905788e+00	-1.87942013e-06	-1.02671771e-06	-8.52702414e-07
5.9            	-8.71553721e-08	1.70854507e+00	-1.87747222e-06	-1.02589148e-06	-8.51580740e-07
5.92           	-8.72924118e-08	1.70784893e+00	-1.57354476e-06	-8.74064791e-07	-6.99479967e-07
5.94           	-8.74697120e-08	1.70707496e+00	-1.87740546e-06	-1.02617244e-06	-8.51233019e-07
5.96           	-8.77103128e-08	1.70627842e+00	-1.75555413e-06	-9.65487376e-07	-7.90066751e-07
5.98           	-8.80284867e-08	1.70552414e+00	-1.44435906e-06	-8.10208019e-07	-6.34151046e-07
6              	-8.84363126e-08	1.70477667e+00	-1.42499081e-06	-8.00931718e-07	-6.24059093e-07
6.02           	-8.89487945e-08	1.70401067e+00	-1.39214685e-06	-7.85022219e-07	-6.07124630e-07
6.04           	-8.95583845e-08	1.70324434e+00	-1.27548020e-06	-7.27298484e-07	-5.48181715e-07
6.06           	-9.02933089e-08	1.70248299e+00	-1.44867391e-06	-8.14630262e-07	-6.34043645e-07
6.08           	-9.11295058e-08	1.70172457e+00	-1.08188580e-06	-6.32072405e-07	-4.49813394e-07
6.1            	-9.20552033e-08	1.70097087e+00	-1.01666572e-06	-6.00388063e-07	-4.16277657e-07
6.12           	-9.30655607e-08	1.70022110e+00	-9.31383105e-07	-5.58757113e-07	-3.72625992e-07
6.14           	-9.41618923e-08	1.69947480e+00	-8.59127404e-07	-5.23725594e-07	-3.35401810e-07
6.16           	-9.53131376e-08	1.69878284e+00	-6.30341048e-07	-4.10483662e-07	-2.19857386e-07
6.18           	-9.65314684e-08	1.69798749e+00	-1.02148390e-06	-6.07273418e-07	-4.14210481e-07
6.2            	-9.78066149e-08	1.69724542e+00	-8.64624318e-07	-5.30118774e-07	-3.34505544e-07
6.22           	-9.91337720e-08	1.69653216e+00	-1.00278651e-06	-6.00527028e-07	-4.02259484e-07
6.24           	-1.00506067e-07	1.69577974e+00	-1.01622703e-06	-6.08619581e-07	-4.07607447e-07
6.26           	-1.01937877e-07	1.69504689e+00	-1.33667542e-06	-7.70275586e-07	-5.66399832e-07
6.28           	-1.03403932e-07	1.69431971e+00	-1.13612373e-06	-6.71465797e-07	-4.64657933e-07
6.3            	-1.04889424e-07	1.69359692e+00	-1.21883964e-06	-7.14309242e-07	-5.04530394e-07
6.32           	-1.06371589e-07	1.69287631e+00	-1.02683351e-06	-6.19788344e-07	-4.07045167e-07