# Force coefficients
# liftDir      : (0.00000000e+00 1.00000000e+00 0.00000000e+00)
# dragDir      : (1.00000000e+00 0.00000000e+00 0.00000000e+00)
# pitchAxis    : (0.00000000e+00 0.00000000e+00 1.00000000e+00)
# magUInf      : 1.00000000e+00
# lRef         : 2.00000000e+00
# Aref         : 2.00000000e+00
# CofR         : (0.00000000e+00 0.00000000e+00 0.00000000e+00)
#              
# Time         	Cm             	Cd             	Cl             	Cl(f)          	Cl(r)          
0.02           	-1.95176258e-07	1.55327548e+02	1.16216520e-05	5.61564973e-06	6.00600224e-06
0.04           	3.21285592e-07	5.83368488e+00	-2.13506510e-06	-7.46246959e-07	-1.38881814e-06
0.06           	2.36291707e-07	-1.53468751e+01	-8.25811157e-05	-4.10542662e-05	-4.15268496e-05
0.08           	1.00677301e-07	-1.04945389e+01	1.32900169e-04	6.65507620e-05	6.63494074e-05
0.1            	-4.30045053e-09	-5.29983274e+00	4.88966007e-05	2.44439999e-05	2.44526008e-05
0.12           	-6.45133825e-08	-2.27838816e+00	3.87220471e-05	1.92965102e-05	1.94255369e-05
0.14           	-9.88262485e-08	-7.28794763e-01	-1.79455302e-05	-9.07159137e-06	-8.87393887e-06
0.16           	-9.09271853e-08	4.06922922e-02	-7.01373254e-06	-3.59779346e-06	-3.41593909e-06
0.18           	-6.88125476e-08	4.34483291e-01	-5.43244444e-05	-2.72310348e-05	-2.70934097e-05
0.2            	-4.33286581e-08	6.49675187e-01	-1.44533089e-06	-7.65994103e-07	-6.79336787e-07
0.22           	-1.80555434e-08	7.76480331e-01	-6.63313428e-06	-3.33462268e-06	-3.29851160e-06
0.24           	2.02557548e-09	8.55695381e-01	-3.49888752e-06	-1.74741818e-06	-1.75146933e-06
0.26           	1.80450863e-08	9.06819162e-01	1.62448624e-05	8.14047627e-06	8.10438609e-06
0.28           	2.96521004e-08	9.39859318e-01	1.78218816e-05	8.94059291e-06	8.88128871e-06
0.3            	3.88531100e-08	9.60825058e-01	-6.82788779e-06	-3.37509078e-06	-3.45279700e-06
0.32           	4.73258633e-08	9.73356358e-01	-1.96271559e-06	-9.34031932e-07	-1.02868366e-06
0.34           	5.64639660e-08	9.80206245e-01	-6.89793479e-06	-3.39250343e-06	-3.50543136e-06
0.36           	6.46065580e-08	9.82991182e-01	1.43042260e-06	7.79817860e-07	6.50604744e-07
0.38           	7.10030048e-08	9.82927858e-01	-1.77874838e-06	-8.18371185e-07	-9.60377195e-07
0.4            	7.59972025e-08	9.81005326e-01	-1.61999729e-06	-7.34001442e-07	-8.85995846e-07
0.42           	8.00111744e-08	9.77865488e-01	7.85090316e-07	4.72556333e-07	3.12533984e-07
0.44           	8.33693084e-08	9.73946682e-01	-1.12072272e-06	-4.76992050e-07	-6.43730667e-07
0.46           	8.59978044e-08	9.69541997e-01	-6.88252200e-07	-2.58128296e-07	-4.30123905e-07
0.48           	8.82804396e-08	9.64992011e-01	-1.58443881e-06	-7.03938967e-07	-8.80499846e-07
0.5            	9.01131380e-08	9.60359515e-01	-6.71443851e-07	-2.45608787e-07	-4.25835063e-07
0.52           	9.18887629e-08	9.56216496e-01	-1.44644862e-06	-6.31335548e-07	-8.15113074e-07
0.54           	9.27998473e-08	9.52321768e-01	-1.13679508e-06	-4.75597695e-07	-6.61197389e-07
0.56           	9.39098698e-08	9.48730208e-01	-1.98637002e-06	-8.99275141e-07	-1.08709488e-06
0.58           	9.37017579e-08	9.44135731e-01	-1.76855770e-06	-7.90577094e-07	-9.77980610e-07
0.6            	9.29475009e-08	9.39481597e-01	-1.49833404e-06	-6.56219521e-07	-8.42114523e-07
0.62           	9.28588546e-08	9.34667503e-01	-1.68769859e-06	-7.50990442e-07	-9.36708151e-07
0.64           	9.21038832e-08	9.31191654e-01	-1.74700885e-06	-7.81400541e-07	-9.65608307e-07
0.66           	8.75433840e-08	9.28847133e-01	-1.82160970e-06	-8.23261466e-07	-9.98348234e-07
0.68           	9.01206889e-08	9.26857859e-01	-1.76392739e-06	-7.91843005e-07	-9.72084383e-07
0.7            	8.71929741e-08	9.24959461e-01	-1.66917915e-06	-7.47396602e-07	-9.21782550e-07
0.72           	8.55943248e-08	9.24304322e-01	-1.67064846e-06	-7.49729907e-07	-9.20918557e-07
0.74           	8.64826561e-08	9.23399394e-01	-1.50996231e-06	-6.68498500e-07	-8.41463812e-07
0.76           	8.53127598e-08	9.23419215e-01	-1.14271370e-06	-4.86044091e-07	-6.56669611e-07
0.78           	8.46966544e-08	9.23146458e-01	-1.00712556e-06	-4.18866126e-07	-5.88259435e-07
0.8            	8.34677333e-08	9.23254133e-01	-1.01515210e-06	-4.24108316e-07	-5.91043783e-07
0.82           	7.99436904e-08	9.24007812e-01	-7.23857803e-07	-2.81985211e-07	-4.41872592e-07
0.84           	7.68504988e-08	9.25048463e-01	-3.41667775e-07	-9.39833887e-08	-2.47684386e-07
0.86           	8.30719804e-08	9.26189192e-01	-2.53164836e-07	-4.35104375e-08	-2.09654398e-07
0.88           	8.24907056e-08	9.27895562e-01	-5.90253127e-07	-2.12635858e-07	-3.77617269e-07
0.9            	6.56874554e-08	9.29600506e-01	-3.44604164e-07	-1.06614627e-07	-2.37989537e-07
0.92           	-2.34902880e-09	9.31544691e-01	-6.24419343e-07	-3.14558700e-07	-3.09860643e-07
0.94           	-4.25485314e-09	9.33804138e-01	-2.20507266e-06	-1.10679118e-06	-1.09828148e-06
0.96           	-1.95974811e-07	9.36270924e-01	-2.88867530e-06	-1.64031246e-06	-1.24836284e-06
0.98           	-3.17120378e-07	9.39157007e-01	-3.52173161e-06	-2.07798618e-06	-1.44374543e-06
1              	-3.01528553e-07	9.42245907e-01	-3.61555414e-06	-2.10930562e-06	-1.50624852e-06
1.02           	-5.95048094e-07	9.46066897e-01	-4.69468382e-06	-2.94239000e-06	-1.75229381e-06
1.04           	-7.16189376e-07	9.48819052e-01	-4.96598299e-06	-3.19918087e-06	-1.76680212e-06
1.06           	-6.69614645e-07	9.52576484e-01	-5.03526068e-06	-3.18724498e-06	-1.84801570e-06
1.08           	-5.97257764e-07	9.54684666e-01	-5.38960833e-06	-3.29206193e-06	-2.09754640e-06
1.1            	-5.23510463e-07	9.58237850e-01	-4.56128546e-06	-2.80415319e-06	-1.75713227e-06
1.12           	-4.50076315e-07	9.62723637e-01	-7.37681149e-06	-4.13848206e-06	-3.23832943e-06
1.14           	-3.75437457e-07	9.67099892e-01	-6.10562982e-06	-3.42825237e-06	-2.67737745e-06
1.16           	-2.90815736e-07	9.70594721e-01	-4.78600386e-06	-2.68381766e-06	-2.10218619e-06
1.18           	-2.13319802e-07	9.75109870e-01	-4.71569860e-06	-2.57116910e-06	-2.14452950e-06
1.2            	-1.77609471e-07	9.79900266e-01	-5.57190871e-06	-2.96356383e-06	-2.60834488e-06
1.22           	-1.38404842e-07	9.85340830e-01	-7.09484190e-06	-3.68582579e-06	-3.40901611e-06
1.24           	-9.70262797e-08	9.89921112e-01	-8.55218874e-06	-4.37312065e-06	-4.17906809e-06
1.26           	-8.10558625e-08	9.93695014e-01	-7.53868862e-06	-3.85040017e-06	-3.68828845e-06
1.28           	-5.80622104e-08	9.99602419e-01	-4.23252545e-06	-2.17432493e-06	-2.05820051e-06
1.3            	-2.16551052e-08	1.00400800e+00	-4.11631214e-06	-2.07981117e-06	-2.03650096e-06
1.32           	1.34377744e-08	1.00947429e+00	-3.70673007e-06	-1.83992726e-06	-1.86680281e-06
1.34           	4.23107421e-08	1.01499286e+00	-3.91594959e-06	-1.91566405e-06	-2.00028554e-06
1.36           	6.25628741e-08	1.02114187e+00	-5.52422561e-06	-2.69954993e-06	-2.82467568e-06
1.38           	-1.12692668e-07	1.02590207e+00	-7.95676163e-06	-4.09107348e-06	-3.86568815e-06
1.4            	-5.47251026e-07	1.03094229e+00	-1.27823677e-05	-6.93843489e-06	-5.84393284e-06
1.42           	-5.98134319e-07	1.03706064e+00	-9.16618501e-06	-5.18122682e-06	-3.98495818e-06
1.44           	-6.67491000e-07	1.04282725e+00	-1.07833354e-05	-6.05915872e-06	-4.72417672e-06
1.46           	-6.52229376e-07	1.04899696e+00	-1.09948155e-05	-6.14963710e-06	-4.84517835e-06
1.48           	-5.61826249e-07	1.05601007e+00	-1.05351888e-05	-5.82942064e-06	-4.70576814e-06
1.5            	-4.83026727e-07	1.06078705e+00	-1.23236772e-05	-6.64486533e-06	-5.67881187e-06
1.52           	-4.20158892e-07	1.06640197e+00	-1.40461493e-05	-7.44323356e-06	-6.60291577e-06
1.54           	-3.71340519e-07	1.07215430e+00	-1.84671510e-05	-9.60491601e-06	-8.86223498e-06
1.56           	-4.32262700e-07	1.07910994e+00	-1.31362822e-05	-7.00040378e-06	-6.13587838e-06
1.58           	-7.91725600e-07	1.08603928e+00	-1.34388369e-05	-7.51114403e-06	-5.92769283e-06
1.6            	-1.72338169e-06	1.09171520e+00	-1.58601278e-05	-9.65344560e-06	-6.20668222e-06
1.62           	1.89588917e-06	1.09779624e+00	-2.85845222e-06	4.66663061e-07	-3.32511528e-06
1.64           	2.16119133e-06	1.10402284e+00	1.61376606e-06	2.96807436e-06	-1.35430830e-06
1.66           	1.68557729e-06	1.11030276e+00	1.40617859e-06	2.38866659e-06	-9.82487992e-07
1.68           	1.16331244e-06	1.11690391e+00	9.55533642e-07	1.64107926e-06	-6.85545614e-07
1.7            	5.93352945e-07	1.12351177e+00	-1.30740297e-06	-6.03485413e-08	-1.24705443e-06
1.72           	3.17016437e-07	1.12772800e+00	-1.69575339e-06	-5.30860259e-07	-1.16489313e-06
1.74           	3.11099535e-07	1.13503787e+00	-4.21951115e-06	-1.79865604e-06	-2.42085511e-06
1.76           	3.06590229e-07	1.14073288e+00	-4.12345402e-06	-1.75513678e-06	-2.36831724e-06
1.78           	3.01670797e-07	1.14660546e+00	-3.02472069e-06	-1.21068955e-06	-1.81403114e-06
1.8            	2.96497326e-07	1.15256106e+00	-2.21370346e-06	-8.10354406e-07	-1.40334906e-06
1.82           	2.91367984e-07	1.15979653e+00	-2.81439976e-06	-1.11583189e-06	-1.69856786e-06
1.84           	2.85085792e-07	1.16542406e+00	-2.89331610e-06	-1.16157226e-06	-1.73174384e-06
1.86           	2.77729315e-07	1.17060605e+00	-3.25095174e-06	-1.34774655e-06	-1.90320518e-06
1.88           	2.69121029e-07	1.17656910e+00	-3.17012294e-06	-1.31594044e-06	-1.85418250e-06
1.9            	2.59595942e-07	1.18160914e+00	-2.68121061e-06	-1.08100936e-06	-1.60020125e-06
1.92           	2.49378865e-07	1.18837064e+00	-3.03312050e-06	-1.26718138e-06	-1.76593911e-06
1.94           	2.39046356e-07	1.19395697e+00	-3.36007828e-06	-1.44099278e-06	-1.91908549e-06
1.96           	2.28336974e-07	1.19984211e+00	-3.72428529e-06	-1.63380567e-06	-2.09047962e-06
1.98           	2.18928914e-07	1.20569623e+00	-3.08844318e-06	-1.32529268e-06	-1.76315050e-06
2              	2.05602151e-07	1.21177138e+00	-2.65363324e-06	-1.12121447e-06	-1.53241877e-06
2.02           	1.93666804e-07	1.21694881e+00	-3.01786002e-06	-1.31526321e-06	-1.70259682e-06
2.04           	1.83675214e-07	1.22098694e+00	-2.79243114e-06	-1.21254036e-06	-1.57989078e-06
2.06           	1.75838122e-07	1.22665867e+00	-2.96838646e-06	-1.30835511e-06	-1.66003135e-06
2.08           	1.70111467e-07	1.23145289e+00	-3.36522066e-06	-1.51249886e-06	-1.85272180e-06
2.1            	1.66381221e-07	1.23691501e+00	-2.71386692e-06	-1.19055224e-06	-1.52331468e-06
2.12           	1.64557853e-07	1.24221105e+00	-2.20248251e-06	-9.36683404e-07	-1.26579911e-06
2.14           	1.64515741e-07	1.24743331e+00	-3.74603103e-06	-1.70849977e-06	-2.03753126e-06
2.16           	1.65092095e-07	1.25259023e+00	-2.84399124e-06	-1.25690353e-06	-1.58708772e-06
2.18           	1.65634371e-07	1.25664851e+00	-3.23223505e-06	-1.45048315e-06	-1.78175189e-06
2.2            	1.62655004e-07	1.26111207e+00	-2.70055542e-06	-1.18762271e-06	-1.51293271e-06
2.22           	1.55509047e-07	1.26576070e+00	-1.35000355e-06	-5.19492728e-07	-8.30510821e-07
2.24           	1.46695605e-07	1.27063040e+00	-1.76112031e-06	-7.33864550e-07	-1.02725576e-06
2.26           	1.36894044e-07	1.27528310e+00	-1.58933820e-06	-6.57775054e-07	-9.31563142e-07
2.28           	1.26499333e-07	1.27964733e+00	-2.44238557e-06	-1.09469345e-06	-1.34769212e-06
2.3            	1.15689732e-07	1.28465127e+00	-2.36894519e-06	-1.06878286e-06	-1.30016233e-06
2.32           	1.04603991e-07	1.28772877e+00	-1.58382027e-06	-6.87306146e-07	-8.96514128e-07
2.34           	9.09050150e-08	1.29152470e+00	-3.88209250e-06	-1.85014123e-06	-2.03195126e-06
2.36           	7.72080812e-08	1.29435603e+00	-2.57452879e-06	-1.21005631e-06	-1.36447247e-06
2.38           	6.39777732e-08	1.29755525e+00	-3.53099572e-06	-1.70152009e-06	-1.82947563e-06
2.4            	5.11761939e-08	1.30095642e+00	-5.95417204e-06	-2.92590983e-06	-3.02826222e-06
2.42           	4.04374601e-08	1.30519706e+00	-5.91255485e-06	-2.91583997e-06	-2.99671489e-06
2.44           	3.21433926e-08	1.30919356e+00	-5.89779985e-06	-2.91675653e-06	-2.98104332e-06
2.46           	3.17873283e-08	1.31349021e+00	-5.14070569e-06	-2.53856552e-06	-2.60214018e-06
2.48           	3.45301325e-08	1.31812923e+00	-5.15891211e-06	-2.54492592e-06	-2.61398619e-06
2.5            	3.93109971e-08	1.32182047e+00	-4.57101502e-06	-2.24619651e-06	-2.32481851e-06
2.52           	4.48082473e-07	1.32551866e+00	-4.29255728e-06	-1.69819617e-06	-2.59436111e-06
2.54           	4.45458774e-07	1.32947446e+00	-3.34244051e-06	-1.22576148e-06	-2.11667903e-06
2.56           	4.30973405e-07	1.33343316e+00	-5.63328728e-06	-2.38567023e-06	-3.24761704e-06
2.58           	4.18582782e-07	1.33768314e+00	-3.84324465e-06	-1.50303954e-06	-2.34020511e-06
2.6            	4.08065693e-07	1.34103532e+00	-4.54076409e-06	-1.86231635e-06	-2.67844774e-06
2.62           	4.00094114e-07	1.34372215e+00	-4.35061328e-06	-1.77521253e-06	-2.57540076e-06
2.64           	3.91767217e-07	1.34712054e+00	-3.98151137e-06	-1.59898847e-06	-2.38252290e-06
2.66           	3.84055277e-07	1.34839720e+00	-5.49951569e-06	-2.36570257e-06	-3.13381312e-06
2.68           	3.76743657e-07	1.35102881e+00	-4.69824648e-06	-1.97237958e-06	-2.72586690e-06
2.7            	3.69638086e-07	1.35306891e+00	-5.24275981e-06	-2.25174182e-06	-2.99101799e-06
2.72           	3.64277802e-07	1.35672235e+00	-4.53052272e-06	-1.90098356e-06	-2.62953916e-06
2.74           	3.56148712e-07	1.35812935e+00	-4.89957695e-06	-2.09363976e-06	-2.80593719e-06
2.76           	3.48401148e-07	1.35844302e+00	-4.17621831e-06	-1.73970801e-06	-2.43651030e-06
2.78           	3.40667085e-07	1.36181742e+00	-3.44559116e-06	-1.38212849e-06	-2.06346266e-06
2.8            	3.40706666e-07	1.36363403e+00	-7.39686106e-06	-3.35772387e-06	-4.03913720e-06
2.82           	3.36916763e-07	1.36523047e+00	-5.07530897e-06	-2.20073772e-06	-2.87457125e-06
2.84           	3.31934627e-07	1.36649450e+00	-5.74834436e-06	-2.54223755e-06	-3.20610681e-06
2.86           	3.21821263e-07	1.36757346e+00	-5.62866209e-06	-2.49250978e-06	-3.13615231e-06
2.88           	3.10566584e-07	1.36916711e+00	-6.61367699e-06	-2.99627191e-06	-3.61740508e-06
2.9            	3.03144169e-07	1.37053005e+00	-6.83246422e-06	-3.11308794e-06	-3.71937628e-06
2.92           	2.96039954e-07	1.37039466e+00	-6.23492291e-06	-2.82142150e-06	-3.41350141e-06
2.94           	-2.26888484e-07	1.37102649e+00	-5.98749135e-06	-3.22063416e-06	-2.76685719e-06
2.96           	-4.56221863e-07	1.36958918e+00	-8.35026649e-06	-4.63135511e-06	-3.71891138e-06
2.98           	-4.44834626e-07	1.36961201e+00	-8.66022629e-06	-4.77494777e-06	-3.88527852e-06
3              	-4.31981770e-07	1.36978743e+00	-7.60585199e-06	-4.23490777e-06	-3.37094423e-06
3.02           	-4.17963143e-07	1.36956616e+00	-7.68610351e-06	-4.26101490e-06	-3.42508861e-06
3.04           	-4.03006034e-07	1.36955238e+00	-7.68460372e-06	-4.24530789e-06	-3.43929582e-06
3.06           	-3.99329861e-07	1.36936170e+00	-7.97036820e-06	-4.38451396e-06	-3.58585424e-06
3.08           	-3.94825904e-07	1.36859647e+00	-6.76669932e-06	-3.77817556e-06	-2.98852376e-06
3.1            	-3.89540567e-07	1.36830389e+00	-8.67264051e-06	-4.72586082e-06	-3.94677969e-06
3.12           	-3.83838442e-07	1.36720671e+00	-8.26228292e-06	-4.51497990e-06	-3.74730302e-06
3.14           	-3.75069479e-07	1.36659912e+00	-6.39236939e-06	-3.57125418e-06	-2.82111522e-06
3.16           	-3.65753811e-07	1.36649753e+00	-7.83899460e-06	-4.28525111e-06	-3.55374349e-06
3.18           	-3.56371782e-07	1.36605952e+00	-7.59417539e-06	-4.15345948e-06	-3.44071592e-06
3.2            	-3.47208358e-07	1.36472975e+00	-7.91196763e-06	-4.30319217e-06	-3.60877546e-06
3.22           	-3.36608412e-07	1.36296043e+00	-6.64714503e-06	-3.66018093e-06	-2.98696410e-06
3.24           	-3.21552035e-07	1.36242613e+00	-9.68917627e-06	-5.16614017e-06	-4.52303610e-06
3.26           	-3.09314869e-07	1.35970727e+00	-8.22666986e-06	-4.42264980e-06	-3.80402006e-06
3.28           	-2.98087360e-07	1.35803685e+00	-6.11247530e-06	-3.35432501e-06	-2.75815029e-06
3.3            	-2.87798702e-07	1.35647701e+00	-8.22146203e-06	-4.39852972e-06	-3.82293231e-06
3.32           	-2.77039632e-07	1.35410745e+00	-7.56128361e-06	-4.05768143e-06	-3.50360217e-06
3.34           	-2.66858090e-07	1.35248418e+00	-7.67946923e-06	-4.10659271e-06	-3.57287653e-06
3.36           	-2.57429722e-07	1.35078140e+00	-7.28305903e-06	-3.89895923e-06	-3.38409979e-06
3.38           	-2.47858300e-07	1.34895146e+00	-7.10958672e-06	-3.80265166e-06	-3.30693506e-06
3.4            	-2.39003163e-07	1.34703029e+00	-6.86664426e-06	-3.67232529e-06	-3.19431897e-06
3.42           	-2.31021933e-07	1.34501538e+00	-7.18658845e-06	-3.82431616e-06	-3.36227229e-06
3.44           	-2.24010566e-07	1.34298365e+00	-6.79948987e-06	-3.62375550e-06	-3.17573437e-06
3.46           	-2.23832995e-07	1.34080550e+00	-6.74232946e-06	-3.59499773e-06	-3.14733174e-06
3.48           	-2.25362894e-07	1.33860770e+00	-9.68412007e-06	-5.06742293e-06	-4.61669714e-06
3.5            	-2.27828003e-07	1.33634783e+00	-6.39763488e-06	-3.42664545e-06	-2.97098944e-06
3.52           	-2.31714098e-07	1.33421183e+00	-3.05190907e-06	-1.75766863e-06	-1.29424043e-06
3.54           	-2.36064150e-07	1.33245689e+00	-6.19043608e-07	-5.45585954e-07	-7.34576540e-08
3.56           	-2.41270717e-07	1.32919736e+00	-1.80114192e-06	-1.14184168e-06	-6.59300245e-07
3.58           	-2.30416605e-07	1.32732667e+00	-5.67353627e-06	-3.06718474e-06	-2.60635153e-06
3.6            	-2.17829102e-07	1.32517461e+00	-6.48707727e-06	-3.46136774e-06	-3.02570953e-06
3.62           	-2.05034750e-07	1.32363830e+00	-6.74528611e-06	-3.57767780e-06	-3.16760830e-06
3.64           	-1.93118853e-07	1.32162443e+00	-7.34339740e-06	-3.86481755e-06	-3.47857985e-06
3.66           	-1.83623173e-07	1.31776443e+00	-6.77219192e-06	-3.56971913e-06	-3.20247279e-06
3.68           	-1.75838120e-07	1.31549963e+00	-6.68754779e-06	-3.51961201e-06	-3.16793577e-06
3.7            	-1.69566095e-07	1.31293379e+00	-5.93760054e-06	-3.13836636e-06	-2.79923417e-06
3.72           	-1.64655665e-07	1.31045694e+00	-7.31183754e-06	-3.82057444e-06	-3.49126311e-06
3.74           	-1.61035749e-07	1.30797559e+00	-6.80830400e-06	-3.56518775e-06	-3.24311625e-06
3.76           	-1.58594648e-07	1.30547502e+00	-7.82588237e-06	-4.07153583e-06	-3.75434654e-06
3.78           	-1.59538888e-07	1.30292647e+00	-7.02638453e-06	-3.67273115e-06	-3.35365338e-06
3.8            	-1.59008242e-07	1.30035666e+00	-6.79568377e-06	-3.55685013e-06	-3.23883364e-06
3.82           	-1.59374031e-07	1.29738740e+00	-7.79227528e-06	-4.05551167e-06	-3.73676361e-06
3.84           	-1.60553177e-07	1.29538472e+00	-7.55842521e-06	-3.93976578e-06	-3.61865943e-06
3.86           	-1.62076552e-07	1.29292944e+00	-7.69074209e-06	-4.00744759e-06	-3.68329449e-06
3.88           	-1.64066588e-07	1.29077877e+00	-8.68760783e-06	-4.50787050e-06	-4.17973733e-06
3.9            	-1.67663287e-07	1.28829920e+00	-7.35936134e-06	-3.84734396e-06	-3.51201738e-06
3.92           	-1.72139966e-07	1.28533251e+00	-6.81334868e-06	-3.57881430e-06	-3.23453437e-06
3.94           	-1.77286165e-07	1.28313913e+00	-7.67415921e-06	-4.01436577e-06	-3.65979344e-06
3.96           	-1.82891377e-07	1.28043514e+00	-7.95337964e-06	-4.15958120e-06	-3.79379844e-06
3.98           	-1.88817114e-07	1.27859865e+00	-6.00237825e-06	-3.19000624e-06	-2.81237201e-06
4              	-1.95190931e-07	1.27642261e+00	-7.74532740e-06	-4.06785463e-06	-3.67747277e-06
4.02           	-2.02023701e-07	1.27388842e+00	-7.14579226e-06	-3.77491983e-06	-3.37087243e-06
4.04           	-2.10632054e-07	1.27128066e+00	-7.12116240e-06	-3.77121325e-06	-3.34994914e-06
4.06           	-2.14051925e-07	1.26875368e+00	-7.64118501e-06	-4.03464443e-06	-3.60654058e-06
4.08           	-2.17743901e-07	1.26683231e+00	-7.52423032e-06	-3.97985906e-06	-3.54437126e-06
4.1            	-2.21756956e-07	1.26449253e+00	-8.98894829e-06	-4.71623110e-06	-4.27271719e-06
4.12           	-2.26157343e-07	1.26209204e+00	-7.68559583e-06	-4.06895526e-06	-3.61664057e-06
4.14           	-2.30838620e-07	1.25969376e+00	-6.60634130e-06	-3.53400927e-06	-3.07233203e-06
4.16           	-2.35854984e-07	1.25693802e+00	-8.08116714e-06	-4.27643856e-06	-3.80472859e-06
4.18           	-2.41122380e-07	1.25519455e+00	-9.19810686e-06	-4.84017581e-06	-4.35793105e-06
4.2            	-2.46648211e-07	1.25298269e+00	-7.17067468e-06	-3.83198555e-06	-3.33868913e-06
4.22           	-2.52302239e-07	1.25088822e+00	-8.22198567e-06	-4.36329507e-06	-3.85869060e-06
4.24           	-2.58112908e-07	1.24829452e+00	-8.27051925e-06	-4.39337253e-06	-3.87714672e-06
4.26           	-2.64185758e-07	1.24618493e+00	-9.10495522e-06	-4.81666337e-06	-4.28829185e-06
4.28           	-2.70471074e-07	1.24429787e+00	-7.34965251e-06	-3.94529733e-06	-3.40435518e-06
4.3            	-2.79641114e-07	1.24205884e+00	-7.03518636e-06	-3.79723429e-06	-3.23795207e-06
4.32           	-2.87023969e-07	1.24016225e+00	-8.96818676e-06	-4.77111735e-06	-4.19706941e-06
4.34           	-2.93875980e-07	1.23732377e+00	-7.16426207e-06	-3.87600701e-06	-3.28825505e-06
4.36           	-3.00835098e-07	1.23520674e+00	-6.72459456e-06	-3.66313238e-06	-3.06146218e-06
4.38           	-3.07500340e-07	1.23348015e+00	-7.90949463e-06	-4.26224765e-06	-3.64724697e-06
4.4            	-3.14245920e-07	1.23166465e+00	-7.26820211e-06	-3.94834698e-06	-3.31985514e-06
4.42           	-3.21070711e-07	1.22970721e+00	-7.08186457e-06	-3.86200299e-06	-3.21986157e-06
4.44           	-3.28511336e-07	1.22773248e+00	-7.00552163e-06	-3.83127215e-06	-3.17424948e-06
4.46           	-3.39812591e-07	1.22573679e+00	-6.83255703e-06	-3.75609111e-06	-3.07646593e-06
4.48           	-3.50836099e-07	1.22407510e+00	-7.88443735e-06	-4.29305478e-06	-3.59138258e-06
4.5            	-3.61690615e-07	1.22236254e+00	-8.86700209e-06	-4.79519166e-06	-4.07181043e-06
4.52           	-3.72427195e-07	1.22041862e+00	-6.99157142e-06	-3.86821291e-06	-3.12335852e-06
4.54           	-3.82985484e-07	1.21880363e+00	-7.47029753e-06	-4.11813425e-06	-3.35216328e-06
4.56           	-3.93311209e-07	1.21704677e+00	-6.66807474e-06	-3.72734858e-06	-2.94072616e-06
4.58           	-4.02960528e-07	1.21503292e+00	-6.94657688e-06	-3.87624897e-06	-3.07032791e-06
4.6            	-4.12469156e-07	1.21250588e+00	-7.48025361e-06	-4.15259596e-06	-3.32765765e-06
4.62           	-4.21703814e-07	1.21170428e+00	-8.93043638e-06	-4.88692201e-06	-4.04351438e-06
4.64           	-4.30406594e-07	1.21017815e+00	-7.06019725e-06	-3.96050522e-06	-3.09969203e-06
4.66           	-4.38598102e-07	1.20863913e+00	-8.07340990e-06	-4.47530305e-06	-3.59810685e-06
4.68           	-4.46471680e-07	1.20741474e+00	-8.06680720e-06	-4.47987528e-06	-3.58693192e-06
4.7            	-4.54240689e-07	1.20521173e+00	-8.40320133e-06	-4.65584136e-06	-3.74735998e-06
4.72           	-4.61854995e-07	1.20352935e+00	-9.33659580e-06	-5.13015289e-06	-4.20644290e-06
4.74           	-4.69259650e-07	1.20225995e+00	-7.10990864e-06	-4.02421397e-06	-3.08569467e-06
4.76           	-4.76537510e-07	1.20084882e+00	-9.88304466e-06	-5.41805984e-06	-4.46498482e-06
4.78           	-4.83601439e-07	1.19906073e+00	-6.14524760e-06	-3.55622524e-06	-2.58902236e-06
4.8            	-4.90515272e-07	1.19735018e+00	-7.15591794e-06	-4.06847424e-06	-3.08744370e-06
4.82           	-4.97222935e-07	1.19585241e+00	-8.80313094e-06	-4.89878840e-06	-3.90434253e-06
4.84           	-5.03720643e-07	1.19454202e+00	-8.45132964e-06	-4.72938547e-06	-3.72194418e-06
4.86           	-5.10000374e-07	1.19328688e+00	-8.44044791e-06	-4.73022433e-06	-3.71022358e-06
4.88           	-5.16060976e-07	1.19195140e+00	-8.01886336e-06	-4.52549265e-06	-3.49337070e-06
4.9            	-5.21913002e-07	1.19056806e+00	-8.98358111e-06	-5.01370356e-06	-3.96987755e-06
4.92           	-5.27486858e-07	1.18946923e+00	-9.22758242e-06	-5.14127807e-06	-4.08630435e-06
4.94           	-5.32815979e-07	1.18812151e+00	-8.19807412e-06	-4.63185304e-06	-3.56622108e-06
4.96           	-5.37984407e-07	1.18635792e+00	-8.07004365e-06	-4.57300623e-06	-3.49703742e-06
4.98           	-5.05639491e-07	1.18564251e+00	-9.52880998e-06	-5.27004448e-06	-4.25876550e-06
5              	-4.82555867e-07	1.18457383e+00	-8.10453866e-06	-4.53482520e-06	-3.56971347e-06
5.02           	-4.86969239e-07	1.18337296e+00	-7.91984234e-06	-4.44689041e-06	-3.47295193e-06
5.04           	-4.91112237e-07	1.18222891e+00	-8.86071818e-06	-4.92147133e-06	-3.93924685e-06
5.06           	-4.95101229e-07	1.18089188e+00	-7.39390931e-06	-4.19205588e-06	-3.20185343e-06
5.08           	-4.98944526e-07	1.17948534e+00	-7.75730020e-06	-4.37759463e-06	-3.37970558e-06
5.1            	-5.02691785e-07	1.17832749e+00	-8.82548259e-06	-4.91543308e-06	-3.91004951e-06
5.12           	-5.06312158e-07	1.17722584e+00	-8.43520199e-06	-4.72391315e-06	-3.71128884e-06
5.14           	-5.09782188e-07	1.17630844e+00	-9.84378479e-06	-5.43167458e-06	-4.41211021e-06
5.16           	-5.13118174e-07	1.17535535e+00	-9.26710096e-06	-5.14666866e-06	-4.12043231e-06
5.18           	-5.11858561e-07	1.17428878e+00	-8.84620922e-06	-4.93496317e-06	-3.91124605e-06
5.2            	-5.08385786e-07	1.17320859e+00	-9.10704132e-06	-5.06190645e-06	-4.04513488e-06
5.22           	-5.04871504e-07	1.17215033e+00	-9.25461755e-06	-5.13218028e-06	-4.12243727e-06
5.24           	-5.01252942e-07	1.17112119e+00	-9.53226540e-06	-5.26738564e-06	-4.26487976e-06
5.26           	-4.97632682e-07	1.17011589e+00	-9.76325130e-06	-5.37925833e-06	-4.38399297e-06
5.28           	-4.94024694e-07	1.16912796e+00	-9.81410485e-06	-5.40107712e-06	-4.41302773e-06
5.3            	-4.90431527e-07	1.16819101e+00	-9.88683053e-06	-5.43384679e-06	-4.45298374e-06
5.32           	-4.86849372e-07	1.16730217e+00	-9.61868411e-06	-5.29619143e-06	-4.32249268e-06
5.34           	-4.83317798e-07	1.16566427e+00	-1.09526911e-05	-5.95966333e-06	-4.99302773e-06
5.36           	-4.79814417e-07	1.16477127e+00	-1.09460625e-05	-5.95284565e-06	-4.99321681e-06
5.38           	-4.76253162e-07	1.16431108e+00	-1.01450534e-05	-5.54877986e-06	-4.59627353e-06
5.4            	-4.72703959e-07	1.16324784e+00	-7.55818110e-06	-4.25179451e-06	-3.30638659e-06
5.42           	-4.69102101e-07	1.16216101e+00	-9.79225667e-06	-5.36523044e-06	-4.42702624e-06
5.44           	-4.65515478e-07	1.16126794e+00	-1.10897948e-05	-6.01041287e-06	-5.07938192e-06
5.46           	-4.61916700e-07	1.16039793e+00	-1.07699876e-05	-5.84691051e-06	-4.92307711e-06
5.48           	-4.58297803e-07	1.15952222e+00	-1.05002102e-05	-5.70840289e-06	-4.79180729e-06
5.5            	-4.54643718e-07	1.15864379e+00	-1.03861104e-05	-5.64769890e-06	-4.73841146e-06
5.52           	-4.50937959e-07	1.15776468e+00	-1.02863748e-05	-5.59412538e-06	-4.69224946e-06
5.54           	-4.47156143e-07	1.15688357e+00	-1.02578979e-05	-5.57610511e-06	-4.68179282e-06
5.56           	-4.43277969e-07	1.15604383e+00	-1.14498119e-05	-6.16818391e-06	-5.28162797e-06
5.58           	-4.39318020e-07	1.15524953e+00	-1.07587921e-05	-5.81871407e-06	-4.94007803e-06
5.6            	-4.35052088e-07	1.15441797e+00	-1.10123096e-05	-5.94120687e-06	-5.07110269e-06
5.62           	-4.30870070e-07	1.15345183e+00	-1.04384397e-05	-5.65008991e-06	-4.78834977e-06
5.64           	-4.26836793e-07	1.15257427e+00	-1.12716366e-05	-6.06265508e-06	-5.20898149e-06
5.66           	-4.32857932e-07	1.15183676e+00	-1.08438021e-05	-5.85475899e-06	-4.98904313e-06
5.68           	-4.75754090e-07	1.15105251e+00	-1.20687964e-05	-6.51015230e-06	-5.55864412e-06
5.7            	-4.91599727e-07	1.15029424e+00	-1.06087246e-05	-5.79596205e-06	-4.81276260e-06
5.72           	-4.85541199e-07	1.14943946e+00	-1.05677797e-05	-5.76943107e-06	-4.79834867e-06
5.74           	-4.79386472e-07	1.14837195e+00	-1.13078084e-05	-6.13329067e-06	-5.17451773e-06
5.76           	-4.73310162e-07	1.14701205e+00	-1.10346157e-05	-5.99061802e-06	-5.04399769e-06
5.78           	-4.67297264e-07	1.14636651e+00	-1.14551279e-05	-6.19486122e-06	-5.26026669e-06
5.8            	-4.61321363e-07	1.14629457e+00	-1.13880442e-05	-6.15534346e-06	-5.23270074e-06
5.82           	-4.55446797e-07	1.14563470e+00	-1.07527893e-05	-5.83184147e-06	-4.92094787e-06
5.84           	-4.49612713e-07	1.14496743e+00	-1.20257589e-05	-6.46249216e-06	-5.56326673e-06
5.86           	-4.43890220e-07	1.14436406e+00	-1.13811118e-05	-6.13444614e-06	-5.24666570e-06
5.88           	-4.38279615e-07	1.14312765e+00	-1.15300525e-05	-6.20330589e-06	-5.32674666e-06
5.9            	-4.32721876e-07	1.14229400e+00	-1.16060203e-05	-6.23573201e-06	-5.37028826e-06
5.92           	-4.27516253e-07	1.14151389e+00	-1.17837373e-05	-6.31938489e-06	-5.46435239e-06
5.94           	-4.22690321e-07	1.14074578e+00	-1.19186478e-05	-6.38201421e-06	-5.53663357e-06
5.96           	-4.18007570e-07	1.13998319e+00	-1.20282115e-05	-6.43211331e-06	-5.59609817e-06
5.98           	-4.13414981e-07	1.13922233e+00	-1.16939475e-05	-6.26038872e-06	-5.43355875e-06
6              	-4.08892369e-07	1.13846123e+00	-1.17269427e-05	-6.27236370e-06	-5.45457896e-06
6.02           	-4.04416784e-07	1.13770949e+00	-1.27616247e-05	-6.78522915e-06	-5.97639558e-06
6.04           	-3.99982643e-07	1.13697346e+00	-1.20250753e-05	-6.41252031e-06	-5.61255502e-06
6.06           	-3.95574459e-07	1.13622805e+00	-1.37783860e-05	-7.28476746e-06	-6.49361854e-06
6.08           	-3.91204242e-07	1.13549972e+00	-1.10476075e-05	-5.91500801e-06	-5.13259952e-06
6.1            	-3.83436377e-07	1.13474792e+00	-1.12989803e-05	-6.03292650e-06	-5.26605375e-06
6.12           	-3.79120225e-07	1.13398755e+00	-1.14321485e-05	-6.09519449e-06	-5.33695404e-06
6.14           	-3.74827675e-07	1.13332869e+00	-1.31628567e-05	-6.95625601e-06	-6.20660066e-06
6.16           	-3.70555536e-07	1.13265577e+00	-1.28445701e-05	-6.79284057e-06	-6.05172950e-06
6.18           	-3.66378949e-07	1.13191585e+00	-1.20519886e-05	-6.39237325e-06	-5.65961535e-06
6.2            	-3.62261148e-07	1.13116711e+00	-1.20772812e-05	-6.40090173e-06	-5.67637943e-06
6.22           	-3.58185692e-07	1.13043138e+00	-1.20917866e-05	-6.40407899e-06	-5.68770761e-06
6.24           	-3.54161895e-07	1.12970790e+00	-1.22160509e-05	-6.46218736e-06	-5.75386357e-06