# Force coefficients
# liftDir      : (0.00000000e+00 1.00000000e+00 0.00000000e+00)
# dragDir      : (1.00000000e+00 0.00000000e+00 0.00000000e+00)
# pitchAxis    : (0.00000000e+00 0.00000000e+00 1.00000000e+00)
# magUInf      : 1.00000000e+00
# lRef         : 2.00000000e+00
# Aref         : 2.00000000e+00
# CofR         : (0.00000000e+00 0.00000000e+00 0.00000000e+00)
#              
# Time         	Cm             	Cd             	Cl             	Cl(f)          	Cl(r)          
0.02           	-2.22989276e-08	1.53422933e+02	3.89053256e-05	1.94303639e-05	1.94749618e-05
0.04           	4.09949066e-08	5.18236539e+00	-6.20080801e-06	-3.05940910e-06	-3.14139891e-06
0.06           	2.86889493e-08	-1.66328504e+01	-9.08614250e-05	-4.54020235e-05	-4.54594014e-05
0.08           	9.61624249e-09	-1.18716598e+01	9.16124065e-05	4.58158195e-05	4.57965870e-05
0.1            	-5.50162072e-09	-6.75770639e+00	1.76206323e-05	8.80481455e-06	8.81581779e-06
0.12           	-1.38777737e-08	-3.69908763e+00	8.07334675e-05	4.03528560e-05	4.03806115e-05
0.14           	1.94738141e-08	-2.07059007e+00	-2.17968772e-05	-1.08789648e-05	-1.09179124e-05
0.16           	1.66983905e-07	-1.22304795e+00	-3.11557336e-05	-1.54108829e-05	-1.57448507e-05
0.18           	1.99130061e-07	-7.60099935e-01	-2.43541807e-05	-1.19779603e-05	-1.23762204e-05
0.2            	1.73274468e-07	-4.83358823e-01	-3.75380692e-05	-1.85957601e-05	-1.89423091e-05
0.22           	1.48671419e-07	-3.01007911e-01	-2.64044638e-05	-1.30535605e-05	-1.33509033e-05
0.24           	1.21882246e-07	-1.71627011e-01	-1.46118551e-06	-6.08710508e-07	-8.52475001e-07
0.26           	1.15434829e-07	-7.54379878e-02	-1.42837444e-05	-7.02643738e-06	-7.25730704e-06
0.28           	1.35766010e-07	-1.92376376e-03	-1.95841697e-05	-9.65631883e-06	-9.92785085e-06
0.3            	1.63576021e-07	5.53831801e-02	-1.58417481e-05	-7.75729803e-06	-8.08445007e-06
0.32           	1.86157103e-07	1.00514222e-01	-1.15078279e-05	-5.56775687e-06	-5.94007107e-06
0.34           	2.01373284e-07	1.36407333e-01	-1.77366653e-05	-8.66695937e-06	-9.06970594e-06
0.36           	1.74923256e-07	1.65205748e-01	1.37791389e-05	7.06449270e-06	6.71464619e-06
0.38           	1.52117045e-07	1.88498139e-01	-3.34724557e-05	-1.65841108e-05	-1.68883449e-05
0.4            	1.36002012e-07	2.07709060e-01	1.73577074e-05	8.81485572e-06	8.54285169e-06
0.42           	1.30467572e-07	2.23493887e-01	-2.74894515e-06	-1.24400500e-06	-1.50494015e-06
0.44           	1.40374502e-07	2.36672302e-01	-4.70255216e-06	-2.21090158e-06	-2.49165058e-06
0.46           	1.54693010e-07	2.47746928e-01	-1.30750770e-05	-6.38284549e-06	-6.69223151e-06
0.48           	1.68274775e-07	2.57181244e-01	-1.81272762e-05	-8.89536332e-06	-9.23191287e-06
0.5            	1.77688262e-07	2.65273790e-01	-2.46490537e-05	-1.21468386e-05	-1.25022151e-05
0.52           	1.82726781e-07	2.72320770e-01	-2.88722752e-05	-1.42534108e-05	-1.46188644e-05
0.54           	1.85030537e-07	2.78537473e-01	-3.32272078e-05	-1.64285733e-05	-1.67986344e-05
0.56           	1.85052496e-07	2.84345476e-01	-3.48337104e-05	-1.72318027e-05	-1.76019077e-05
0.58           	1.72856624e-07	2.89825544e-01	-4.25095196e-05	-2.10819032e-05	-2.14276164e-05
0.6            	1.55291069e-07	2.94976176e-01	-4.76161492e-05	-2.36527835e-05	-2.39633657e-05
0.62           	1.37248665e-07	2.99904808e-01	-5.13814560e-05	-2.55534793e-05	-2.58279767e-05
0.64           	1.20964576e-07	3.04413893e-01	-4.40204830e-05	-2.18892769e-05	-2.21312061e-05
0.66           	1.07110776e-07	3.08615836e-01	-4.50404083e-05	-2.24130934e-05	-2.26273149e-05
0.68           	9.44440390e-08	3.12669651e-01	-1.55104831e-05	-7.66079751e-06	-7.84968559e-06
0.7            	8.20383431e-08	3.16627516e-01	-1.20730646e-05	-5.95449393e-06	-6.11857062e-06
0.72           	7.03016509e-08	3.20568975e-01	-9.86508441e-06	-4.86224056e-06	-5.00284386e-06
0.74           	7.69587808e-09	3.24604355e-01	-1.21457982e-05	-6.06520322e-06	-6.08059498e-06
0.76           	4.62920290e-08	3.28856583e-01	-1.35757203e-05	-6.74156811e-06	-6.83415217e-06
0.78           	3.81946284e-08	3.30554139e-01	-1.53069468e-05	-7.61527879e-06	-7.69166805e-06
0.8            	3.23889566e-08	3.31131193e-01	-1.97595802e-05	-9.84740115e-06	-9.91217907e-06
0.82           	2.24415235e-08	3.32332452e-01	-1.36871837e-05	-6.82115030e-06	-6.86603335e-06
0.84           	1.90865158e-08	3.35699721e-01	-2.57627002e-05	-1.28622636e-05	-1.29004366e-05
0.86           	1.66384124e-08	3.35811580e-01	-2.20524044e-05	-1.10095638e-05	-1.10428406e-05
0.88           	1.39706575e-08	3.38145822e-01	-2.88236345e-05	-1.43978466e-05	-1.44257879e-05
0.9            	1.74282705e-09	3.42718088e-01	-1.48756188e-05	-7.43606655e-06	-7.43955221e-06
0.92           	-2.54998854e-09	3.46608898e-01	-1.62568837e-05	-8.13099184e-06	-8.12589186e-06
0.94           	-7.45996246e-09	3.51308312e-01	-1.48632381e-05	-7.43907902e-06	-7.42415910e-06
0.96           	-1.21642906e-08	3.55733577e-01	-2.91795911e-05	-1.46019598e-05	-1.45776312e-05
0.98           	-1.94833177e-08	3.61001729e-01	-2.43257556e-05	-1.21823611e-05	-1.21433945e-05
1              	-2.44113802e-08	3.65766556e-01	-1.87239331e-05	-9.38637795e-06	-9.33755519e-06
1.02           	-2.24099321e-08	3.69960307e-01	-1.70850427e-05	-8.56493126e-06	-8.52011140e-06
1.04           	-2.80666122e-08	3.74673162e-01	-1.72133879e-05	-8.63476055e-06	-8.57862732e-06
1.06           	-3.40154075e-08	3.79035284e-01	-1.70299599e-05	-8.54899535e-06	-8.48096454e-06
1.08           	-3.94042876e-08	3.84360315e-01	-1.74816027e-05	-8.78020565e-06	-8.70139708e-06
1.1            	-4.38139354e-08	3.89896018e-01	-1.88185514e-05	-9.45308963e-06	-9.36546176e-06
1.12           	-4.73015985e-08	3.95427898e-01	-1.79817661e-05	-9.03818464e-06	-8.94358144e-06
1.14           	-4.85950574e-08	4.00774765e-01	-1.73863560e-05	-8.74177306e-06	-8.64458295e-06
1.16           	-4.95895081e-08	4.06113202e-01	-2.08287131e-05	-1.04639461e-05	-1.03647670e-05
1.18           	-4.88086433e-08	4.15453138e-01	-2.02772208e-05	-1.01874190e-05	-1.00898018e-05
1.2            	-4.70349171e-08	4.21819335e-01	-1.32355526e-05	-6.66481120e-06	-6.57074136e-06
1.22           	-4.15745138e-08	4.29473308e-01	-1.72571646e-05	-8.67015680e-06	-8.58700777e-06
1.24           	-3.98660260e-08	4.35474620e-01	-1.93943881e-05	-9.73706006e-06	-9.65732800e-06
1.26           	-3.67731603e-08	4.41303598e-01	-2.95481647e-05	-1.48108555e-05	-1.47373092e-05
1.28           	-3.37635945e-08	4.47904164e-01	-2.70906955e-05	-1.35791113e-05	-1.35115842e-05
1.3            	-2.95766949e-08	4.54313759e-01	-3.04691545e-05	-1.52641539e-05	-1.52050005e-05
1.32           	-2.01672600e-08	4.60880019e-01	-3.18560892e-05	-1.59482119e-05	-1.59078774e-05
1.34           	-9.54471822e-09	4.67057862e-01	-3.37110631e-05	-1.68650763e-05	-1.68459868e-05
1.36           	-1.49653343e-09	4.75093275e-01	-2.53645605e-05	-1.26837768e-05	-1.26807837e-05
1.38           	5.92902143e-09	4.83021119e-01	-2.25216282e-05	-1.12548851e-05	-1.12667431e-05
1.4            	-1.77117562e-09	4.89887661e-01	-2.57151525e-05	-1.28593474e-05	-1.28558051e-05
1.42           	-2.71881859e-08	4.96594250e-01	-3.16390865e-05	-1.58467314e-05	-1.57923550e-05
1.44           	-5.67659684e-08	5.04889426e-01	-3.44893190e-05	-1.73014255e-05	-1.71878935e-05
1.46           	-8.16476123e-08	5.13114323e-01	-3.61451059e-05	-1.81542006e-05	-1.79909053e-05
1.48           	-9.86422680e-08	5.20179690e-01	-3.99383106e-05	-2.00677976e-05	-1.98705131e-05
1.5            	-1.06917587e-07	5.26827077e-01	-4.13893265e-05	-2.08015809e-05	-2.05877457e-05
1.52           	-9.37607788e-08	5.32807367e-01	-3.65327820e-05	-1.83601518e-05	-1.81726302e-05
1.54           	7.24950985e-08	5.39560468e-01	-3.51229742e-05	-1.74889920e-05	-1.76339822e-05
1.56           	1.11028133e-07	5.47500348e-01	-5.68743528e-05	-2.83261482e-05	-2.85482045e-05
1.58           	1.51931657e-07	5.56054865e-01	-6.00472718e-05	-2.98717042e-05	-3.01755675e-05
1.6            	1.86262315e-07	5.64327355e-01	-6.33589572e-05	-3.14932163e-05	-3.18657409e-05
1.62           	2.08090101e-07	5.74092130e-01	-3.75452865e-05	-1.85645531e-05	-1.89807333e-05
1.64           	2.33439306e-07	5.80297530e-01	-1.04327701e-05	-4.98294573e-06	-5.44982435e-06
1.66           	2.62888518e-07	5.89180127e-01	-4.08525218e-05	-2.01633724e-05	-2.06891494e-05
1.68           	2.97421084e-07	5.98701292e-01	-5.27257051e-05	-2.60654315e-05	-2.66602736e-05
1.7            	3.31997096e-07	6.09177090e-01	-5.30561963e-05	-2.61961011e-05	-2.68600953e-05
1.72           	3.65747052e-07	6.18809502e-01	-6.05361494e-05	-2.99023277e-05	-3.06338218e-05
1.74           	4.01292411e-07	6.26844376e-01	-4.35074128e-05	-2.13524140e-05	-2.21549988e-05
1.76           	4.14228603e-07	6.36874893e-01	-4.46708238e-05	-2.19211833e-05	-2.27496405e-05
1.78           	4.99314071e-07	6.45132457e-01	-4.69684561e-05	-2.29849140e-05	-2.39835421e-05
1.8            	7.03967073e-07	6.55111075e-01	-2.70797617e-05	-1.28359138e-05	-1.42438479e-05
1.82           	5.60116703e-07	6.63622030e-01	-2.18256787e-05	-1.03527226e-05	-1.14729560e-05
1.84           	4.28063032e-07	6.71419103e-01	-4.29991370e-05	-2.10715055e-05	-2.19276315e-05
1.86           	3.09747692e-07	6.81296414e-01	-4.80850222e-05	-2.37327634e-05	-2.43522588e-05
1.88           	2.43475408e-07	6.92161722e-01	-5.13186172e-05	-2.54158332e-05	-2.59027840e-05
1.9            	2.41939919e-07	7.02213198e-01	-5.14640768e-05	-2.54900985e-05	-2.59739783e-05
1.92           	2.40583915e-07	7.11308023e-01	-5.75388333e-05	-2.85288327e-05	-2.90100006e-05
1.94           	2.38347907e-07	7.21903752e-01	-5.08174288e-05	-2.51703665e-05	-2.56470623e-05
1.96           	2.07391776e-07	7.35885650e-01	-4.85087354e-05	-2.40469759e-05	-2.44617595e-05
1.98           	2.11433244e-07	7.41032975e-01	-3.96327221e-05	-1.96049278e-05	-2.00277943e-05
2              	2.14403209e-07	7.48993409e-01	-5.57771539e-05	-2.76741737e-05	-2.81029802e-05
2.02           	2.12871255e-07	7.59470588e-01	-6.23242920e-05	-3.09492747e-05	-3.13750173e-05
2.04           	2.11583683e-07	7.68573820e-01	-6.28756752e-05	-3.12262539e-05	-3.16494213e-05
2.06           	2.07575232e-07	7.78123472e-01	-7.26488143e-05	-3.61168319e-05	-3.65319824e-05
2.08           	2.07110976e-07	7.86483354e-01	-7.53210907e-05	-3.74534344e-05	-3.78676563e-05
2.1            	2.07012044e-07	7.98603160e-01	-7.09092586e-05	-3.52476173e-05	-3.56616414e-05
2.12           	2.05381478e-07	8.08643814e-01	-6.65963650e-05	-3.30928010e-05	-3.35035640e-05
2.14           	1.77917883e-07	8.15454866e-01	-6.49847439e-05	-3.23144541e-05	-3.26702898e-05
2.16           	8.18792177e-08	8.27708731e-01	-4.95461571e-05	-2.46911993e-05	-2.48549578e-05
2.18           	-6.53689768e-09	8.37194672e-01	-5.87762123e-05	-2.93946430e-05	-2.93815692e-05
2.2            	-1.01098183e-07	8.46331700e-01	-3.66674460e-05	-1.84348212e-05	-1.82326248e-05
2.22           	-1.62854607e-07	8.57111692e-01	-9.50057943e-05	-4.76657517e-05	-4.73400425e-05
2.24           	-1.93193748e-07	8.69264391e-01	-6.66884901e-05	-3.35374388e-05	-3.31510513e-05
2.26           	-2.04116289e-07	8.79583142e-01	-8.31087040e-05	-4.17584683e-05	-4.13502357e-05
2.28           	-1.91247763e-07	8.86754154e-01	-7.20332211e-05	-3.62078583e-05	-3.58253628e-05
2.3            	-7.17407191e-08	8.95027369e-01	-6.77209578e-05	-3.39322196e-05	-3.37887382e-05
2.32           	4.44924516e-08	9.03596450e-01	-7.13825683e-05	-3.56467917e-05	-3.57357766e-05
2.34           	1.69135585e-07	9.13238239e-01	-7.81187631e-05	-3.88902459e-05	-3.92285171e-05
2.36           	2.95670971e-07	9.23065810e-01	-9.54173431e-05	-4.74130006e-05	-4.80043425e-05
2.38           	-6.79741960e-09	9.32371315e-01	-6.95596157e-05	-3.47866053e-05	-3.47730104e-05
2.4            	-3.11899655e-07	9.36886121e-01	-8.77567123e-05	-4.41902558e-05	-4.35664565e-05
2.42           	-4.18217854e-07	9.45122660e-01	-9.27455853e-05	-4.67910105e-05	-4.59545748e-05
2.44           	-3.71134683e-07	9.51286040e-01	-9.00431842e-05	-4.53927268e-05	-4.46504574e-05
2.46           	-1.79735698e-07	9.55562274e-01	-9.70199905e-05	-4.86897309e-05	-4.83302595e-05
2.48           	-7.84335159e-08	9.61403994e-01	-9.79859656e-05	-4.90714163e-05	-4.89145493e-05
2.5            	-1.16116846e-07	9.68928981e-01	-9.43091449e-05	-4.72706893e-05	-4.70384556e-05
2.52           	-8.55513175e-08	9.76974811e-01	-1.13939779e-04	-5.70554411e-05	-5.68843384e-05
2.54           	-6.75029161e-08	9.85362490e-01	-9.71882431e-05	-4.86616245e-05	-4.85266187e-05
2.56           	-1.08140780e-07	9.84925377e-01	-1.08182155e-04	-5.41992182e-05	-5.39829367e-05
2.58           	-1.14127718e-07	9.89293406e-01	-9.83388257e-05	-4.92835406e-05	-4.90552851e-05
2.6            	-1.00659566e-07	9.95687653e-01	-1.49595538e-04	-7.48984286e-05	-7.46971095e-05
2.62           	-8.90040765e-08	1.00035782e+00	-1.03758750e-04	-5.19683790e-05	-5.17903708e-05
2.64           	-7.41493614e-08	1.00557740e+00	-1.28694148e-04	-6.44212233e-05	-6.42729246e-05
2.66           	-7.01523373e-08	1.01237888e+00	-1.13403525e-04	-5.67719149e-05	-5.66316102e-05
2.68           	-3.23670027e-07	1.01458268e+00	-1.15829046e-04	-5.82381931e-05	-5.75908531e-05
2.7            	-8.90912620e-08	1.02086477e+00	-1.03922302e-04	-5.20502422e-05	-5.18720597e-05
2.72           	9.71862863e-08	1.02492336e+00	-1.06517737e-04	-5.31616820e-05	-5.33560546e-05
2.74           	2.29196177e-07	1.03075528e+00	-9.81961561e-05	-4.88688819e-05	-4.93272742e-05
2.76           	3.14151789e-07	1.03006515e+00	-1.01095158e-04	-5.02334272e-05	-5.08617308e-05
2.78           	3.18415108e-07	1.03036600e+00	-1.07697387e-04	-5.35302783e-05	-5.41671085e-05
2.8            	2.45869221e-08	1.03371140e+00	-1.08056361e-04	-5.40035935e-05	-5.40527674e-05
2.82           	-3.20628735e-07	1.03730881e+00	-1.12001525e-04	-5.63213910e-05	-5.56801336e-05
2.84           	-3.86046410e-07	1.03934002e+00	-1.14737151e-04	-5.77546220e-05	-5.69825291e-05
2.86           	-3.99178936e-07	1.04229120e+00	-1.26242464e-04	-6.35204110e-05	-6.27220531e-05
2.88           	-4.12010055e-07	1.04202992e+00	-7.52617976e-05	-3.80429088e-05	-3.72188887e-05
2.9            	-4.23560289e-07	1.03982426e+00	-1.28149709e-04	-6.44984148e-05	-6.36512942e-05
2.92           	-4.34683220e-07	1.04148400e+00	-1.18473825e-04	-5.96715956e-05	-5.88022292e-05
2.94           	-4.44983547e-07	1.04243945e+00	-1.29053173e-04	-6.49715702e-05	-6.40816031e-05
2.96           	-4.54281763e-07	1.04279909e+00	-9.22515334e-05	-4.65800485e-05	-4.56714849e-05
2.98           	-4.63283649e-07	1.04282088e+00	-1.14483301e-04	-5.77049341e-05	-5.67783668e-05
3              	-4.70010718e-07	1.04250191e+00	-1.60979961e-04	-8.09599910e-05	-8.00199696e-05
3.02           	-4.72349802e-07	1.04192026e+00	-8.53161439e-05	-4.31304218e-05	-4.21857222e-05
3.04           	-4.71597206e-07	1.03976012e+00	-1.48379597e-04	-7.46613955e-05	-7.37182010e-05
3.06           	-4.67959826e-07	1.04232854e+00	-1.41386201e-04	-7.11610603e-05	-7.02251407e-05
3.08           	-4.39228404e-07	1.04624892e+00	-1.42541990e-04	-7.17102235e-05	-7.08317667e-05
3.1            	-2.01504437e-07	1.04576190e+00	-1.33520637e-04	-6.69618231e-05	-6.65588142e-05
3.12           	3.50363262e-08	1.04411642e+00	-9.67447475e-05	-4.83373374e-05	-4.84074101e-05
3.14           	-4.11729141e-08	1.03980995e+00	-1.33412637e-04	-6.67474913e-05	-6.66651454e-05
3.16           	-1.60894937e-07	1.03897239e+00	-1.46352282e-04	-7.33370361e-05	-7.30152462e-05
3.18           	-1.72083506e-07	1.03821335e+00	-1.46853581e-04	-7.35988742e-05	-7.32547072e-05
3.2            	-2.08904115e-07	1.03887899e+00	-1.54922772e-04	-7.76702901e-05	-7.72524819e-05
3.22           	-2.54582846e-07	1.03610428e+00	-1.30996988e-04	-6.57530771e-05	-6.52439114e-05
3.24           	-2.79604647e-07	1.03173683e+00	-1.37777283e-04	-6.91682459e-05	-6.86090366e-05
3.26           	-3.13256629e-07	1.02992487e+00	-1.58312666e-04	-7.94695895e-05	-7.88430762e-05
3.28           	-3.42088366e-07	1.02830077e+00	-1.54993304e-04	-7.78387404e-05	-7.71545636e-05
3.3            	-3.66734533e-07	1.02578820e+00	-1.55306546e-04	-7.80200074e-05	-7.72865383e-05
3.32           	-3.88493314e-07	1.02412820e+00	-1.56314025e-04	-7.85455060e-05	-7.77685193e-05
3.34           	-3.42445081e-07	1.02148672e+00	-1.61146935e-04	-8.09159125e-05	-8.02310224e-05
3.36           	-3.59921993e-07	1.01870735e+00	-1.61664524e-04	-8.11921838e-05	-8.04723398e-05
3.38           	-3.77289303e-07	1.01633537e+00	-1.50085808e-04	-7.54201934e-05	-7.46656148e-05
3.4            	-3.92322570e-07	1.01334703e+00	-1.57152923e-04	-7.89687843e-05	-7.81841391e-05
3.42           	-3.80253683e-07	1.01060819e+00	-1.75731721e-04	-8.82461142e-05	-8.74856068e-05
3.44           	-3.21676127e-07	1.00790687e+00	-1.82550059e-04	-9.15967057e-05	-9.09533534e-05
3.46           	-2.68939026e-07	1.00595483e+00	-1.66120220e-04	-8.33290489e-05	-8.27911708e-05
3.48           	-2.24544390e-07	1.00408793e+00	-1.76508174e-04	-8.84786312e-05	-8.80295424e-05
3.5            	-1.87838749e-07	1.00259438e+00	-1.64574889e-04	-8.24752834e-05	-8.20996059e-05
3.52           	-1.57262240e-07	9.99476779e-01	-1.57132464e-04	-7.87234943e-05	-7.84089698e-05
3.54           	-1.33889847e-07	9.96171539e-01	-1.58917257e-04	-7.95925185e-05	-7.93247389e-05
3.56           	-9.59531498e-08	9.92855302e-01	-1.63247826e-04	-8.17198661e-05	-8.15279598e-05
3.58           	-7.43769514e-08	9.89953067e-01	-1.79040389e-04	-8.95945713e-05	-8.94458174e-05
3.6            	-7.58039296e-08	9.86949242e-01	-1.27998311e-04	-6.40749594e-05	-6.39233515e-05
3.62           	7.52648191e-08	9.82494264e-01	-1.51801762e-04	-7.58256163e-05	-7.59761459e-05
3.64           	7.97914335e-08	9.79767188e-01	-1.56000220e-04	-7.79203188e-05	-7.80799017e-05
3.66           	8.78721106e-08	9.76555654e-01	-1.65281174e-04	-8.25527151e-05	-8.27284593e-05
3.68           	9.19751122e-08	9.73591889e-01	-1.69022268e-04	-8.44191591e-05	-8.46031093e-05
3.7            	7.66496087e-08	9.70490022e-01	-1.68503629e-04	-8.41751647e-05	-8.43284639e-05
3.72           	4.76736656e-08	9.67189396e-01	-1.69902142e-04	-8.49033976e-05	-8.49987449e-05
3.74           	-1.45944341e-07	9.62894173e-01	-1.72673981e-04	-8.64829350e-05	-8.61910464e-05
3.76           	-1.45478671e-07	9.61549694e-01	-1.58429592e-04	-7.93602747e-05	-7.90693174e-05
3.78           	-1.28327186e-07	9.59334495e-01	-1.80804988e-04	-9.05308211e-05	-9.02741667e-05
3.8            	-1.19379832e-07	9.55351073e-01	-2.12723274e-04	-1.06481017e-04	-1.06242257e-04
3.82           	-1.19341483e-07	9.51626609e-01	-1.72807413e-04	-8.65230479e-05	-8.62843650e-05
3.84           	-1.18714255e-07	9.47632176e-01	-1.72581486e-04	-8.64094572e-05	-8.61720287e-05
3.86           	-1.18609662e-07	9.43880255e-01	-1.64017494e-04	-8.21273568e-05	-8.18901375e-05
3.88           	-1.17803914e-07	9.42187916e-01	-1.97860035e-04	-9.90478215e-05	-9.88122137e-05
3.9            	-1.17770758e-07	9.39754454e-01	-1.80444998e-04	-9.03402698e-05	-9.01047283e-05
3.92           	-1.18813290e-07	9.36849119e-01	-1.90389033e-04	-9.53133296e-05	-9.50757031e-05
3.94           	-1.21898792e-07	9.33919899e-01	-1.89222853e-04	-9.47333255e-05	-9.44895279e-05
3.96           	-1.26635839e-07	9.30895893e-01	-1.89945048e-04	-9.50991596e-05	-9.48458879e-05
3.98           	-1.31321443e-07	9.27741018e-01	-1.96624979e-04	-9.84438109e-05	-9.81811681e-05
4              	-1.36587929e-07	9.25116334e-01	-1.75470754e-04	-8.78719648e-05	-8.75987889e-05
4.02           	-1.41869549e-07	9.21894556e-01	-1.86288103e-04	-9.32859209e-05	-9.30021818e-05
4.04           	-1.46571084e-07	9.18579834e-01	-1.98294886e-04	-9.92940141e-05	-9.90008720e-05
4.06           	-1.50759780e-07	9.17032102e-01	-2.00491712e-04	-1.00396616e-04	-1.00095096e-04
4.08           	-1.54390399e-07	9.14526327e-01	-2.08917593e-04	-1.04613187e-04	-1.04304406e-04
4.1            	-1.57712445e-07	9.11771105e-01	-2.07845256e-04	-1.04080341e-04	-1.03764916e-04
4.12           	-1.61129087e-07	9.09130911e-01	-1.87100980e-04	-9.37116190e-05	-9.33893609e-05
4.14           	-1.64437844e-07	9.05483254e-01	-2.05174748e-04	-1.02751812e-04	-1.02422936e-04
4.16           	-1.68147446e-07	9.01659682e-01	-1.94805416e-04	-9.75708553e-05	-9.72345605e-05
4.18           	-1.65216152e-07	9.00370182e-01	-2.02856477e-04	-1.01593454e-04	-1.01263022e-04
4.2            	-1.69245989e-07	8.97972119e-01	-2.32501454e-04	-1.16419973e-04	-1.16081481e-04
4.22           	-1.73966667e-07	8.95465699e-01	-2.01491727e-04	-1.00919830e-04	-1.00571897e-04
4.24           	-1.78598447e-07	8.92832960e-01	-2.34859914e-04	-1.17608556e-04	-1.17251359e-04
4.26           	-1.83854060e-07	8.90504766e-01	-2.28745444e-04	-1.14556576e-04	-1.14188868e-04
4.28           	-1.88780692e-07	8.87866247e-01	-2.18642673e-04	-1.09510117e-04	-1.09132556e-04
4.3            	-1.78465258e-07	8.85921810e-01	-1.97532296e-04	-9.89446135e-05	-9.85876830e-05
4.32           	-1.76857346e-07	8.84165203e-01	-2.63581272e-04	-1.31967493e-04	-1.31613779e-04
4.34           	-1.80470875e-07	8.81955449e-01	-2.23223985e-04	-1.11792464e-04	-1.11431522e-04
4.36           	-1.86022142e-07	8.78809586e-01	-2.31112987e-04	-1.15742516e-04	-1.15370471e-04
4.38           	-1.93585479e-07	8.77752010e-01	-2.20234675e-04	-1.10310923e-04	-1.09923752e-04
4.4            	-2.02142568e-07	8.75519727e-01	-2.25878863e-04	-1.13141574e-04	-1.12737289e-04
4.42           	-2.10285713e-07	8.73184649e-01	-2.17427231e-04	-1.08923901e-04	-1.08503330e-04
4.44           	-2.14576218e-07	8.70923356e-01	-2.24132157e-04	-1.12280655e-04	-1.11851502e-04
4.46           	-2.15815641e-07	8.68719188e-01	-2.23946508e-04	-1.12189070e-04	-1.11757438e-04
4.48           	-2.13700635e-07	8.66750913e-01	-2.44008072e-04	-1.22217737e-04	-1.21790335e-04
4.5            	-2.08988023e-07	8.63760333e-01	-2.17051648e-04	-1.08734812e-04	-1.08316836e-04
4.52           	-2.02005414e-07	8.62153441e-01	-2.03507219e-04	-1.01955615e-04	-1.01551604e-04
4.54           	-1.94227472e-07	8.60077246e-01	-2.46152287e-04	-1.23270371e-04	-1.22881916e-04
4.56           	-1.87029562e-07	8.58136748e-01	-2.38616809e-04	-1.19495434e-04	-1.19121375e-04
4.58           	-1.81983572e-07	8.56125430e-01	-2.35408021e-04	-1.17885994e-04	-1.17522027e-04
4.6            	-1.79533553e-07	8.54352379e-01	-2.37824017e-04	-1.19091542e-04	-1.18732475e-04
4.62           	-1.79981354e-07	8.52773874e-01	-2.50759231e-04	-1.25559597e-04	-1.25199634e-04
4.64           	-1.71395161e-07	8.50839266e-01	-2.36066154e-04	-1.18204472e-04	-1.17861682e-04
4.66           	-1.70103373e-07	8.48811696e-01	-2.55702386e-04	-1.28021296e-04	-1.27681089e-04
4.68           	-1.79587379e-07	8.46639263e-01	-2.53662045e-04	-1.27010610e-04	-1.26651435e-04
4.7            	-2.31575882e-07	8.43734632e-01	-2.47577414e-04	-1.24020283e-04	-1.23557131e-04
4.72           	-3.07542552e-07	8.43170425e-01	-2.35720150e-04	-1.18167617e-04	-1.17552532e-04
4.74           	-3.82556627e-07	8.41732394e-01	-2.91455936e-04	-1.46110525e-04	-1.45345411e-04
4.76           	-4.51766524e-07	8.40031305e-01	-2.77246461e-04	-1.39074997e-04	-1.38171464e-04
4.78           	-5.14466821e-07	8.38049832e-01	-2.43497947e-04	-1.22263440e-04	-1.21234507e-04
4.8            	-5.70303317e-07	8.36902477e-01	-2.76909983e-04	-1.39025295e-04	-1.37884688e-04
4.82           	-6.11955458e-07	8.35451559e-01	-2.58522838e-04	-1.29873374e-04	-1.28649463e-04
4.84           	-6.12526591e-07	8.33792161e-01	-2.69491922e-04	-1.35358487e-04	-1.34133434e-04
4.86           	-6.10173796e-07	8.32325418e-01	-2.97565632e-04	-1.49392990e-04	-1.48172642e-04
4.88           	-6.06454038e-07	8.30711784e-01	-2.77525438e-04	-1.39369173e-04	-1.38156265e-04
4.9            	-6.02467941e-07	8.29231112e-01	-2.90780958e-04	-1.45992947e-04	-1.44788011e-04
4.92           	-5.99476791e-07	8.27557661e-01	-2.75892897e-04	-1.38545925e-04	-1.37346972e-04
4.94           	-5.98201015e-07	8.26320522e-01	-2.79697276e-04	-1.40446839e-04	-1.39250437e-04
4.96           	-5.98603341e-07	8.25058474e-01	-2.87840686e-04	-1.44518946e-04	-1.43321740e-04
4.98           	-6.00836622e-07	8.23727202e-01	-3.10627356e-04	-1.55914514e-04	-1.54712841e-04
5              	-5.91781379e-07	8.22073264e-01	-2.27555985e-04	-1.14369774e-04	-1.13186211e-04
5.02           	-6.05838838e-07	8.20219786e-01	-2.47695239e-04	-1.24453458e-04	-1.23241781e-04
5.04           	-6.00405893e-07	8.18736018e-01	-2.92083165e-04	-1.46641989e-04	-1.45441177e-04
5.06           	-5.86647828e-07	8.17256644e-01	-2.90840433e-04	-1.46006864e-04	-1.44833569e-04
5.08           	-5.76122118e-07	8.15172619e-01	-3.31677563e-04	-1.66414903e-04	-1.65262659e-04
5.1            	-5.59289914e-07	8.15457962e-01	-3.04506679e-04	-1.52812630e-04	-1.51694050e-04
5.12           	-5.36600655e-07	8.14353164e-01	-3.44087265e-04	-1.72580233e-04	-1.71507032e-04
5.14           	-5.14427755e-07	8.13175739e-01	-2.82540629e-04	-1.41784742e-04	-1.40755887e-04
5.16           	-4.94855078e-07	8.11767521e-01	-2.86286849e-04	-1.43638280e-04	-1.42648569e-04
5.18           	-4.78572905e-07	8.10377249e-01	-2.95387972e-04	-1.48172559e-04	-1.47215413e-04
5.2            	-4.64851278e-07	8.09041926e-01	-3.02321738e-04	-1.51625721e-04	-1.50696018e-04
5.22           	-4.52833743e-07	8.07749998e-01	-3.05634349e-04	-1.53270008e-04	-1.52364341e-04
5.24           	-4.41454868e-07	8.06476822e-01	-3.06178828e-04	-1.53530869e-04	-1.52647959e-04
5.26           	-4.30198999e-07	8.05225036e-01	-3.07806931e-04	-1.54333665e-04	-1.53473267e-04
5.28           	-4.19080027e-07	8.04000981e-01	-3.09137813e-04	-1.54987987e-04	-1.54149826e-04
5.3            	-4.08667409e-07	8.02779768e-01	-3.10013138e-04	-1.55415237e-04	-1.54597902e-04
5.32           	-3.99610522e-07	8.01574166e-01	-3.10563640e-04	-1.55681431e-04	-1.54882210e-04
5.34           	-3.92439401e-07	8.00403274e-01	-3.16291250e-04	-1.58538064e-04	-1.57753186e-04
5.36           	-3.87866791e-07	7.99220865e-01	-3.12640572e-04	-1.56708153e-04	-1.55932419e-04
5.38           	-3.86153380e-07	7.98046997e-01	-3.13781571e-04	-1.57276939e-04	-1.56504632e-04
5.4            	-3.87365803e-07	7.96882094e-01	-3.15341926e-04	-1.58058329e-04	-1.57283597e-04
5.42           	-3.91430647e-07	7.95696936e-01	-3.16272149e-04	-1.58527505e-04	-1.57744644e-04
5.44           	-3.98089647e-07	7.94500491e-01	-3.16699985e-04	-1.58748082e-04	-1.57951903e-04
5.46           	-4.06811533e-07	7.93252616e-01	-3.12723428e-04	-1.56768526e-04	-1.55954902e-04
5.48           	-4.17033791e-07	7.91616359e-01	-3.14213509e-04	-1.57523788e-04	-1.56689721e-04
5.5            	-4.28117749e-07	7.90429625e-01	-3.55034134e-04	-1.77945185e-04	-1.77088949e-04
5.52           	-4.37692488e-07	7.90973124e-01	-3.42713825e-04	-1.71794605e-04	-1.70919220e-04
5.54           	-4.45098298e-07	7.89694131e-01	-3.80864952e-04	-1.90877574e-04	-1.89987378e-04
5.56           	-4.69554012e-07	7.88705939e-01	-3.22369566e-04	-1.61654337e-04	-1.60715229e-04
5.58           	-4.71050581e-07	7.87582684e-01	-3.17162852e-04	-1.59052476e-04	-1.58110375e-04
5.6            	-4.69678225e-07	7.86477638e-01	-3.26568386e-04	-1.63753871e-04	-1.62814515e-04
5.62           	-4.80718094e-07	7.85420353e-01	-3.35371486e-04	-1.68166461e-04	-1.67205025e-04
5.64           	-4.95881498e-07	7.84382245e-01	-3.40494455e-04	-1.70743109e-04	-1.69751346e-04
5.66           	-5.07663461e-07	7.83436348e-01	-3.31589643e-04	-1.66302485e-04	-1.65287158e-04
5.68           	-5.16037794e-07	7.82471843e-01	-3.54934158e-04	-1.77983117e-04	-1.76951041e-04
5.7            	-5.26320650e-07	7.81393777e-01	-3.41997996e-04	-1.71525319e-04	-1.70472678e-04
5.72           	-5.41471836e-07	7.80414832e-01	-3.47134956e-04	-1.74108950e-04	-1.73026006e-04
5.74           	-5.61389933e-07	7.79409972e-01	-3.45608004e-04	-1.73365392e-04	-1.72242612e-04
5.76           	-5.80045968e-07	7.78401158e-01	-3.53828226e-04	-1.77494159e-04	-1.76334067e-04
5.78           	-6.04064022e-07	7.77378924e-01	-3.38284215e-04	-1.69746172e-04	-1.68538044e-04
5.8            	-6.26969803e-07	7.76365563e-01	-3.39229537e-04	-1.70241738e-04	-1.68987799e-04
5.82           	-6.47178773e-07	7.75414135e-01	-3.90922406e-04	-1.96108382e-04	-1.94814024e-04
5.84           	-6.65071235e-07	7.74437470e-01	-3.34681092e-04	-1.68005617e-04	-1.66675475e-04
5.86           	-6.76536889e-07	7.73574851e-01	-4.32405355e-04	-2.16879214e-04	-2.15526140e-04
5.88           	-6.85220857e-07	7.72883904e-01	-3.12830394e-04	-1.57100418e-04	-1.55729976e-04
5.9            	-6.90752166e-07	7.72089548e-01	-3.57159449e-04	-1.79270477e-04	-1.77888972e-04
5.92           	-6.97629491e-07	7.71122049e-01	-3.53635558e-04	-1.77515408e-04	-1.76120149e-04
5.94           	-7.06923209e-07	7.70098747e-01	-3.62661036e-04	-1.82037441e-04	-1.80623595e-04
5.96           	-7.19256975e-07	7.69080255e-01	-3.77591712e-04	-1.89515113e-04	-1.88076599e-04
5.98           	-7.38916701e-07	7.67556232e-01	-3.50797561e-04	-1.76137697e-04	-1.74659864e-04
6              	-7.64114411e-07	7.67588648e-01	-3.61591686e-04	-1.81559957e-04	-1.80031728e-04
6.02           	-8.43360077e-07	7.66622100e-01	-3.45728167e-04	-1.73707444e-04	-1.72020724e-04
6.04           	-8.69397540e-07	7.65594606e-01	-3.52824727e-04	-1.77281761e-04	-1.75542966e-04
6.06           	-8.27877034e-07	7.64771985e-01	-3.72791537e-04	-1.87223645e-04	-1.85567891e-04
6.08           	-8.29894059e-07	7.63959500e-01	-3.75175732e-04	-1.88417760e-04	-1.86757972e-04
6.1            	-8.39509890e-07	7.63141751e-01	-3.77370523e-04	-1.89524772e-04	-1.87845752e-04
6.12           	-8.49497862e-07	7.62364720e-01	-3.88572493e-04	-1.95135744e-04	-1.93436748e-04
6.14           	-8.59695482e-07	7.61267505e-01	-3.19921785e-04	-1.60820588e-04	-1.59101197e-04
6.16           	-8.68404607e-07	7.60358578e-01	-3.66653507e-04	-1.84195158e-04	-1.82458349e-04
6.18           	-8.76573740e-07	7.59237245e-01	-3.54690240e-04	-1.78221694e-04	-1.76468546e-04
6.2            	-8.84142902e-07	7.58667104e-01	-3.81955389e-04	-1.91861837e-04	-1.90093551e-04
6.22           	-8.91861117e-07	7.57945361e-01	-3.82983074e-04	-1.92383398e-04	-1.90599676e-04