# Force coefficients
# liftDir      : (0.00000000e+00 1.00000000e+00 0.00000000e+00)
# dragDir      : (1.00000000e+00 0.00000000e+00 0.00000000e+00)
# pitchAxis    : (0.00000000e+00 0.00000000e+00 1.00000000e+00)
# magUInf      : 1.00000000e+00
# lRef         : 2.00000000e+00
# Aref         : 2.00000000e+00
# CofR         : (0.00000000e+00 0.00000000e+00 0.00000000e+00)
#              
# Time         	Cm             	Cd             	Cl             	Cl(f)          	Cl(r)          
0.02           	-5.13606971e-06	1.78837957e+02	-2.95945274e-04	-1.53108707e-04	-1.42836567e-04
0.04           	-2.73984546e-06	8.44952354e+00	3.61687327e-04	1.78103818e-04	1.83583509e-04
0.06           	-2.58933198e-06	-7.41606210e+00	-9.43138413e-05	-4.97462526e-05	-4.45675887e-05
0.08           	-2.55424297e-06	-2.35163001e+00	-2.92132038e-05	-1.71608449e-05	-1.20523589e-05
0.1            	-2.37606431e-06	2.77495244e+00	9.70961264e-05	4.61719989e-05	5.09241275e-05
0.12           	-2.14276547e-06	5.20775910e+00	5.58027043e-05	2.57585867e-05	3.00441176e-05
0.14           	-1.90139853e-06	5.98970742e+00	-2.17415897e-05	-1.27721934e-05	-8.96939634e-06
0.16           	-1.67702413e-06	6.05506184e+00	4.47455903e-06	5.60255386e-07	3.91430365e-06
0.18           	-1.47290729e-06	5.88141561e+00	2.06077081e-05	8.83094675e-06	1.17767613e-05
0.2            	-1.29618440e-06	5.65949736e+00	2.63171812e-05	1.18624062e-05	1.44547750e-05
0.22           	-1.14565497e-06	5.45046401e+00	2.76520921e-05	1.26803911e-05	1.49717010e-05
0.24           	-1.01796983e-06	5.26632950e+00	1.93922148e-05	8.67813758e-06	1.07140773e-05
0.26           	-9.07323872e-07	5.10523694e+00	1.96628559e-05	8.92410408e-06	1.07387518e-05
0.28           	-8.10883330e-07	4.96312066e+00	1.97309162e-05	9.05457478e-06	1.06763414e-05
0.3            	-7.26150532e-07	4.83540950e+00	1.92881240e-05	8.91791145e-06	1.03702125e-05
0.32           	-6.50820525e-07	4.71957809e+00	1.75751339e-05	8.13674644e-06	9.43838749e-06
0.34           	-5.83419507e-07	4.61387706e+00	1.68577330e-05	7.84544697e-06	9.01228599e-06
0.36           	-5.22849458e-07	4.51666488e+00	1.59707504e-05	7.46252573e-06	8.50822465e-06
0.38           	-4.67823803e-07	4.42729492e+00	1.51220225e-05	7.09318744e-06	8.02883504e-06
0.4            	-4.17726357e-07	4.34467099e+00	1.42369066e-05	6.70072692e-06	7.53617964e-06
0.42           	-3.71391111e-07	4.26846499e+00	1.34183356e-05	6.33777669e-06	7.08055891e-06
0.44           	-3.28560540e-07	4.19764134e+00	1.26867500e-05	6.01481447e-06	6.67193555e-06
0.46           	-2.88942729e-07	4.13150920e+00	1.18916099e-05	5.65686224e-06	6.23474770e-06
0.48           	-2.52190421e-07	4.06973202e+00	1.13400071e-05	5.41781314e-06	5.92219399e-06
0.5            	-2.17941242e-07	4.01193013e+00	1.12462871e-05	5.40520233e-06	5.84108482e-06
0.52           	-1.85954303e-07	3.95792108e+00	1.06839731e-05	5.15603224e-06	5.52794085e-06
0.54           	-1.55721828e-07	3.90712384e+00	1.01792930e-05	4.93392467e-06	5.24536833e-06
0.56           	-1.27248691e-07	3.85929451e+00	9.63733661e-06	4.69141961e-06	4.94591699e-06
0.58           	-1.00081086e-07	3.81428468e+00	9.06406034e-06	4.43194909e-06	4.63211126e-06
0.6            	-7.44823105e-08	3.77189810e+00	8.72003407e-06	4.28553473e-06	4.43449935e-06
0.62           	-5.03209352e-08	3.73180138e+00	8.16467148e-06	4.03201481e-06	4.13265668e-06
0.64           	-2.74189585e-08	3.69381096e+00	7.63277516e-06	3.78896862e-06	3.84380654e-06
0.66           	-5.61159979e-09	3.65784618e+00	7.28171531e-06	3.63524606e-06	3.64646926e-06
0.68           	1.51277959e-08	3.62354661e+00	6.86816654e-06	3.44921107e-06	3.41895547e-06
0.7            	3.48885279e-08	3.59092642e+00	6.44940951e-06	3.25959328e-06	3.18981623e-06
0.72           	5.37027544e-08	3.55991255e+00	6.11054095e-06	3.10897323e-06	3.00156772e-06
0.74           	7.17113039e-08	3.53037716e+00	5.73303162e-06	2.93822711e-06	2.79480451e-06
0.76           	8.87893043e-08	3.50223592e+00	5.40017846e-06	2.78887853e-06	2.61129992e-06
0.78           	1.04990766e-07	3.47543771e+00	5.13295769e-06	2.67146961e-06	2.46148808e-06
0.8            	1.20393697e-07	3.44987388e+00	4.70240669e-06	2.47159704e-06	2.23080965e-06
0.82           	1.35081435e-07	3.42539938e+00	4.25189911e-06	2.26103099e-06	1.99086812e-06
0.84           	1.49198163e-07	3.40195145e+00	4.10893491e-06	2.20366562e-06	1.90526929e-06
0.86           	1.61174813e-07	3.37949188e+00	3.98942540e-06	2.15588751e-06	1.83353788e-06
0.88           	1.73012797e-07	3.35791973e+00	3.67177878e-06	2.00890219e-06	1.66287659e-06
0.9            	1.84597764e-07	3.33723136e+00	3.48807605e-06	1.92863579e-06	1.55944026e-06
0.92           	1.96056615e-07	3.31737489e+00	2.89386924e-06	1.64299123e-06	1.25087800e-06
0.94           	2.10256649e-07	3.29830262e+00	2.62204399e-06	1.52127864e-06	1.10076535e-06
0.96           	2.21010708e-07	3.27998207e+00	2.43907214e-06	1.44054678e-06	9.98525364e-07
0.98           	2.31536502e-07	3.26235929e+00	2.18943442e-06	1.32625371e-06	8.63180710e-07
1              	2.41738513e-07	3.24538792e+00	2.09889121e-06	1.29118412e-06	8.07707093e-07
1.02           	2.49071132e-07	3.22897276e+00	1.87404062e-06	1.18609144e-06	6.87949180e-07
1.04           	2.58090521e-07	3.21316044e+00	1.78578466e-06	1.15098285e-06	6.34801807e-07
1.06           	2.66344049e-07	3.19787488e+00	1.41010410e-06	9.71396099e-07	4.38708000e-07
1.08           	2.75108110e-07	3.18316252e+00	1.04849774e-06	7.99356978e-07	2.49140758e-07
1.1            	2.82373567e-07	3.16898482e+00	8.37414708e-07	7.01080921e-07	1.36333787e-07
1.12           	2.93448865e-07	3.15528269e+00	7.19489313e-07	6.53193521e-07	6.62957920e-08
1.14           	3.03173730e-07	3.14202104e+00	5.31204621e-07	5.68776041e-07	-3.75714195e-08
1.16           	3.10326026e-07	3.12919024e+00	3.49853440e-07	4.85252746e-07	-1.35399306e-07
1.18           	3.16794541e-07	3.11682129e+00	2.59162463e-07	4.46375773e-07	-1.87213310e-07
1.2            	3.25127093e-07	3.10480461e+00	1.10032918e-07	3.80143552e-07	-2.70110634e-07
1.22           	3.35813136e-07	3.09316273e+00	-1.49320099e-07	2.61153087e-07	-4.10473186e-07
1.24           	3.43939601e-07	3.08185462e+00	-3.47581970e-07	1.70148616e-07	-5.17730586e-07
1.26           	3.51122014e-07	3.07091688e+00	-5.19918916e-07	9.11625559e-08	-6.11081472e-07
1.28           	3.57290721e-07	3.06030214e+00	-6.09519521e-07	5.25309605e-08	-6.62050482e-07
1.3            	5.79025136e-07	3.05000210e+00	-3.89491328e-08	5.59550570e-07	-5.98499703e-07
1.32           	6.11660264e-07	3.04000660e+00	-8.34024001e-08	5.69959064e-07	-6.53361464e-07
1.34           	6.34035359e-07	3.03029867e+00	-2.76745561e-07	4.95662579e-07	-7.72408140e-07
1.36           	6.52032161e-07	3.02085932e+00	-2.27750810e-07	5.38156756e-07	-7.65907566e-07
1.38           	6.75623307e-07	3.01164682e+00	-2.50487899e-07	5.50379357e-07	-8.00867257e-07
1.4            	5.32536007e-07	3.00275840e+00	-1.34234916e-06	-1.38638572e-07	-1.20371059e-06
1.42           	6.78993238e-07	2.99407075e+00	-8.68844685e-07	2.44570896e-07	-1.11341558e-06
1.44           	7.84225350e-08	2.98562220e+00	-3.16408406e-06	-1.50361949e-06	-1.66046456e-06
1.46           	5.37387972e-08	2.97739124e+00	-3.33195823e-06	-1.61224032e-06	-1.71971791e-06
1.48           	-6.11659374e-08	2.96941167e+00	-3.67394602e-06	-1.89813895e-06	-1.77580707e-06
1.5            	-4.31633872e-08	2.96163502e+00	-3.99218827e-06	-2.03925752e-06	-1.95293075e-06
1.52           	-1.09723769e-08	2.95403876e+00	-4.15594724e-06	-2.08894600e-06	-2.06700124e-06
1.54           	5.06468238e-08	2.94663068e+00	-4.23208076e-06	-2.06539355e-06	-2.16668720e-06
1.56           	-1.02150238e-07	2.93941103e+00	-4.58588993e-06	-2.39509520e-06	-2.19079473e-06
1.58           	3.18767066e-07	2.93234805e+00	-2.59985462e-06	-9.81160241e-07	-1.61869437e-06
1.6            	6.52571249e-07	2.92553219e+00	-2.15047945e-06	-4.22668474e-07	-1.72781097e-06
1.62           	6.71814654e-07	2.91884431e+00	-3.73147117e-06	-1.19392093e-06	-2.53755024e-06
1.64           	-5.96098817e-07	2.91228455e+00	-7.08429906e-06	-4.13824835e-06	-2.94605071e-06
1.66           	-4.13625566e-07	2.90585268e+00	-6.70764569e-06	-3.76744841e-06	-2.94019728e-06
1.68           	-3.65447403e-07	2.89955723e+00	-6.78181739e-06	-3.75635610e-06	-3.02546129e-06
1.7            	4.25730900e-07	2.89338703e+00	-4.14200123e-06	-1.64526972e-06	-2.49673152e-06
1.72           	4.47933189e-07	2.88740638e+00	-3.85558261e-06	-1.47985812e-06	-2.37572450e-06
1.74           	4.38550419e-07	2.88152620e+00	-4.07309579e-06	-1.59799748e-06	-2.47509831e-06
1.76           	4.73730178e-07	2.87579658e+00	-3.70010207e-06	-1.37632086e-06	-2.32378122e-06
1.78           	5.11924923e-07	2.87018906e+00	-3.68987213e-06	-1.33301114e-06	-2.35686099e-06
1.8            	6.39059021e-07	2.86465358e+00	-3.84154516e-06	-1.28171356e-06	-2.55983160e-06
1.82           	6.74697647e-07	2.85925245e+00	-3.65902554e-06	-1.15481512e-06	-2.50421042e-06
1.84           	6.65749086e-07	2.85397702e+00	-3.65796413e-06	-1.16323298e-06	-2.49473115e-06
1.86           	6.54332310e-07	2.84878838e+00	-3.89315737e-06	-1.29224637e-06	-2.60091099e-06
1.88           	6.68184267e-07	2.84374110e+00	-3.96469324e-06	-1.31416235e-06	-2.65053089e-06
1.9            	6.61858709e-07	2.83876243e+00	-4.27855132e-06	-1.47741695e-06	-2.80113437e-06
1.92           	6.50499295e-07	2.83387385e+00	-4.22223268e-06	-1.46061704e-06	-2.76161563e-06
1.94           	6.37433549e-07	2.82909192e+00	-4.32592069e-06	-1.52552679e-06	-2.80039389e-06
1.96           	1.79964796e-06	2.82439538e+00	-2.05123105e-06	7.74032436e-07	-2.82526349e-06
1.98           	5.90727184e-07	2.81977242e+00	-4.45743540e-06	-1.63799052e-06	-2.81944489e-06
2              	5.78576015e-07	2.81524615e+00	-4.77478314e-06	-1.80881556e-06	-2.96596759e-06
2.02           	5.69146742e-07	2.81080669e+00	-4.89406624e-06	-1.87788638e-06	-3.01617986e-06
2.04           	5.57149034e-07	2.80646314e+00	-5.02350622e-06	-1.95460408e-06	-3.06890214e-06
2.06           	5.41909308e-07	2.80216970e+00	-5.13663006e-06	-2.02640572e-06	-3.11022434e-06
2.08           	5.24545699e-07	2.79795303e+00	-5.25099706e-06	-2.10095283e-06	-3.15004423e-06
2.1            	5.22685190e-07	2.79381512e+00	-5.43371953e-06	-2.19417458e-06	-3.23954496e-06
2.12           	5.08384526e-07	2.78976159e+00	-5.86500509e-06	-2.42411802e-06	-3.44088707e-06
2.14           	5.00297592e-07	2.78576908e+00	-5.99977626e-06	-2.49959054e-06	-3.50018572e-06
2.16           	4.95256029e-07	2.78184180e+00	-5.79046101e-06	-2.39997447e-06	-3.39048653e-06
2.18           	4.87888767e-07	2.77797880e+00	-6.15397154e-06	-2.58909700e-06	-3.56487454e-06
2.2            	4.98885713e-07	2.77416886e+00	-5.94619215e-06	-2.47421036e-06	-3.47198179e-06
2.22           	5.16631162e-07	2.77042398e+00	-5.91954137e-06	-2.44313952e-06	-3.47640184e-06
2.24           	5.21888661e-07	2.76674173e+00	-5.99997260e-06	-2.47809764e-06	-3.52187496e-06
2.26           	5.25554854e-07	2.76309788e+00	-5.98393072e-06	-2.46641050e-06	-3.51752021e-06
2.28           	5.27322383e-07	2.75950689e+00	-6.30403415e-06	-2.62469469e-06	-3.67933946e-06
2.3            	5.27568299e-07	2.75597030e+00	-6.12629828e-06	-2.53558084e-06	-3.59071744e-06
2.32           	5.25273836e-07	2.75248875e+00	-6.14599436e-06	-2.54772335e-06	-3.59827102e-06
2.34           	5.46587341e-07	2.74905770e+00	-6.15329113e-06	-2.53005822e-06	-3.62323291e-06
2.36           	5.60339897e-07	2.74567743e+00	-6.18667386e-06	-2.53299703e-06	-3.65367683e-06
2.38           	5.34796049e-07	2.74234583e+00	-6.29698954e-06	-2.61369872e-06	-3.68329082e-06
2.4            	5.13833050e-07	2.73906152e+00	-6.64916562e-06	-2.81074976e-06	-3.83841586e-06
2.42           	5.01035267e-07	2.73583488e+00	-6.69120161e-06	-2.84456554e-06	-3.84663607e-06
2.44           	4.93704648e-07	2.73262623e+00	-6.73508701e-06	-2.87383886e-06	-3.86124815e-06
2.46           	5.20667999e-07	2.72946974e+00	-6.76085416e-06	-2.85975908e-06	-3.90109508e-06
2.48           	4.79607515e-07	2.72635364e+00	-6.89401293e-06	-2.96739895e-06	-3.92661398e-06
2.5            	4.80017820e-07	2.72329611e+00	-6.94174557e-06	-2.99085497e-06	-3.95089061e-06
2.52           	4.80484312e-07	2.72027072e+00	-6.97516286e-06	-3.00709712e-06	-3.96806574e-06
2.54           	4.80585202e-07	2.71728106e+00	-6.96477331e-06	-3.00180145e-06	-3.96297186e-06
2.56           	4.79674620e-07	2.71433671e+00	-6.97687218e-06	-3.00876147e-06	-3.96811071e-06
2.58           	4.78441801e-07	2.71142947e+00	-7.05137707e-06	-3.04724673e-06	-4.00413034e-06
2.6            	4.76841678e-07	2.70855791e+00	-7.09042327e-06	-3.06836996e-06	-4.02205331e-06
2.62           	4.85876816e-07	2.70570647e+00	-7.30662898e-06	-3.16743767e-06	-4.13919131e-06
2.64           	5.02952939e-07	2.70288882e+00	-7.28727984e-06	-3.14068698e-06	-4.14659286e-06
2.66           	5.22630568e-07	2.70010308e+00	-7.21026972e-06	-3.08250429e-06	-4.12776543e-06
2.68           	5.40573946e-07	2.69734772e+00	-7.16269938e-06	-3.04077575e-06	-4.12192364e-06
2.7            	5.55127161e-07	2.69462210e+00	-6.97032871e-06	-2.93003719e-06	-4.04029152e-06
2.72           	5.65910308e-07	2.69192657e+00	-6.94616865e-06	-2.90717402e-06	-4.03899463e-06
2.74           	5.73375798e-07	2.68926186e+00	-6.90540662e-06	-2.87932751e-06	-4.02607911e-06
2.76           	5.79327849e-07	2.68662922e+00	-6.89723355e-06	-2.86928893e-06	-4.02794463e-06
2.78           	5.84573290e-07	2.68402525e+00	-6.87990786e-06	-2.85538064e-06	-4.02452722e-06
2.8            	6.49165918e-07	2.68145551e+00	-6.76000478e-06	-2.73083647e-06	-4.02916831e-06
2.82           	6.89605047e-07	2.67892256e+00	-6.75760281e-06	-2.68919636e-06	-4.06840645e-06
2.84           	7.05384812e-07	2.67641873e+00	-6.52495343e-06	-2.55709190e-06	-3.96786152e-06
2.86           	6.78085016e-07	2.67394014e+00	-6.55430914e-06	-2.59906955e-06	-3.95523958e-06
2.88           	6.49154793e-07	2.67148709e+00	-6.65280784e-06	-2.67724913e-06	-3.97555871e-06
2.9            	6.14232427e-07	2.66905789e+00	-6.71922637e-06	-2.74538076e-06	-3.97384561e-06
2.92           	6.03672199e-07	2.66665135e+00	-6.22297319e-06	-2.50781440e-06	-3.71515879e-06
2.94           	5.94684280e-07	2.66426216e+00	-5.79858084e-06	-2.30460614e-06	-3.49397470e-06
2.96           	5.84480018e-07	2.66190395e+00	-5.38484598e-06	-2.10794297e-06	-3.27690301e-06
2.98           	5.74137893e-07	2.65956694e+00	-5.70859451e-06	-2.28015936e-06	-3.42843515e-06
3              	5.64803551e-07	2.65725008e+00	-6.11414123e-06	-2.49226706e-06	-3.62187416e-06
3.02           	5.57022394e-07	2.65497271e+00	-6.28631338e-06	-2.58613430e-06	-3.70017908e-06
3.04           	5.50795761e-07	2.65269756e+00	-6.31304551e-06	-2.60572700e-06	-3.70731852e-06
3.06           	5.45905443e-07	2.65044842e+00	-6.95485325e-06	-2.93152118e-06	-4.02333207e-06
3.08           	5.42041860e-07	2.64821443e+00	-7.01721449e-06	-2.96656538e-06	-4.05064910e-06
3.1            	5.39043139e-07	2.64600780e+00	-7.45170651e-06	-3.18681012e-06	-4.26489639e-06
3.12           	5.36284326e-07	2.64382106e+00	-7.44219693e-06	-3.18481414e-06	-4.25738279e-06
3.14           	5.34080520e-07	2.64165079e+00	-7.39506094e-06	-3.16344995e-06	-4.23161099e-06
3.16           	5.32286795e-07	2.63949850e+00	-7.37019408e-06	-3.15281024e-06	-4.21738383e-06
3.18           	5.30706960e-07	2.63736825e+00	-7.43561018e-06	-3.18709813e-06	-4.24851205e-06
3.2            	5.29236807e-07	2.63525860e+00	-7.49748869e-06	-3.21950754e-06	-4.27798115e-06
3.22           	5.27604957e-07	2.63316026e+00	-7.82898456e-06	-3.38688732e-06	-4.44209724e-06
3.24           	5.26066824e-07	2.63108948e+00	-7.87922020e-06	-3.41354328e-06	-4.46567693e-06
3.26           	5.24532665e-07	2.62903078e+00	-7.90797737e-06	-3.42945602e-06	-4.47852135e-06
3.28           	5.22978438e-07	2.62698199e+00	-7.71793909e-06	-3.33599111e-06	-4.38194798e-06
3.3            	5.21321259e-07	2.62496818e+00	-7.94996479e-06	-3.45366114e-06	-4.49630366e-06
3.32           	5.19581753e-07	2.62297557e+00	-7.89571827e-06	-3.42827738e-06	-4.46744089e-06
3.34           	5.17736869e-07	2.62098061e+00	-7.43857849e-06	-3.20155238e-06	-4.23702612e-06
3.36           	5.15768150e-07	2.61900176e+00	-7.15372259e-06	-3.06109314e-06	-4.09262944e-06
3.38           	5.13674748e-07	2.61704017e+00	-6.77566805e-06	-2.87415928e-06	-3.90150877e-06
3.4            	5.11432954e-07	2.61509829e+00	-6.43035690e-06	-2.70374550e-06	-3.72661141e-06
3.42           	5.08738976e-07	2.61316437e+00	-6.19971522e-06	-2.59111863e-06	-3.60859659e-06
3.44           	5.06149820e-07	2.61124880e+00	-6.08624695e-06	-2.53697366e-06	-3.54927330e-06
3.46           	5.04478612e-07	2.60934865e+00	-5.91020124e-06	-2.45062201e-06	-3.45957923e-06
3.48           	5.02209967e-07	2.60746332e+00	-6.50588431e-06	-2.75073219e-06	-3.75515212e-06
3.5            	4.99599589e-07	2.60558752e+00	-6.74806970e-06	-2.87443526e-06	-3.87363444e-06
3.52           	4.99069054e-07	2.60374445e+00	-6.64997016e-06	-2.82591603e-06	-3.82405413e-06
3.54           	4.95837697e-07	2.60191534e+00	-6.75800497e-06	-2.88316479e-06	-3.87484018e-06
3.56           	4.92059552e-07	2.60009474e+00	-6.88352549e-06	-2.94970320e-06	-3.93382230e-06
3.58           	4.88499625e-07	2.59828835e+00	-6.96131778e-06	-2.99215927e-06	-3.96915852e-06
3.6            	4.85201737e-07	2.59649759e+00	-7.02366020e-06	-3.02662836e-06	-3.99703184e-06
3.62           	4.82005581e-07	2.59472227e+00	-7.32221427e-06	-3.17910155e-06	-4.14311272e-06
3.64           	4.78852401e-07	2.59295996e+00	-7.35397166e-06	-3.19813343e-06	-4.15583823e-06
3.66           	4.75684772e-07	2.59121034e+00	-7.50101561e-06	-3.27482304e-06	-4.22619258e-06
3.68           	4.72479100e-07	2.58947338e+00	-7.75653622e-06	-3.40578901e-06	-4.35074721e-06
3.7            	4.69241129e-07	2.58774921e+00	-7.94648221e-06	-3.50399997e-06	-4.44248223e-06
3.72           	4.66032833e-07	2.58603717e+00	-7.03945976e-06	-3.05369705e-06	-3.98576271e-06
3.74           	4.62774932e-07	2.58433513e+00	-6.90073718e-06	-2.98759366e-06	-3.91314352e-06
3.76           	4.59522245e-07	2.58264164e+00	-5.92868804e-06	-2.50482178e-06	-3.42386627e-06
3.78           	4.56204908e-07	2.58095796e+00	-6.21167496e-06	-2.64963257e-06	-3.56204239e-06
3.8            	4.52918175e-07	2.57929519e+00	-6.69493991e-06	-2.89455178e-06	-3.80038813e-06
3.82           	4.49715883e-07	2.57763976e+00	-6.71995050e-06	-2.91025937e-06	-3.80969113e-06
3.84           	4.46604880e-07	2.57599781e+00	-6.81102538e-06	-2.95890781e-06	-3.85211757e-06
3.86           	4.43581163e-07	2.57436720e+00	-6.83510463e-06	-2.97397115e-06	-3.86113348e-06
3.88           	4.40616704e-07	2.57274754e+00	-6.69167304e-06	-2.90521982e-06	-3.78645322e-06
3.9            	4.37646359e-07	2.57113855e+00	-6.67851132e-06	-2.90160930e-06	-3.77690202e-06
3.92           	4.34725491e-07	2.56954038e+00	-6.59368501e-06	-2.86211701e-06	-3.73156800e-06
3.94           	4.31824117e-07	2.56795380e+00	-6.68579528e-06	-2.91107352e-06	-3.77472176e-06
3.96           	4.28922581e-07	2.56637438e+00	-6.85358317e-06	-2.99786901e-06	-3.85571417e-06
3.98           	4.26011350e-07	2.56480674e+00	-7.05611593e-06	-3.10204661e-06	-3.95406931e-06
4              	4.23084584e-07	2.56324993e+00	-7.21510381e-06	-3.18446732e-06	-4.03063649e-06
4.02           	4.20137471e-07	2.56170301e+00	-7.46330736e-06	-3.31151621e-06	-4.15179115e-06
4.04           	4.17177059e-07	2.56016619e+00	-7.64191981e-06	-3.40378285e-06	-4.23813697e-06
4.06           	4.14200592e-07	2.55863673e+00	-7.73303156e-06	-3.45231519e-06	-4.28071637e-06
4.08           	4.11248162e-07	2.55711842e+00	-7.71518508e-06	-3.44634438e-06	-4.26884070e-06
4.1            	4.08296036e-07	2.55561307e+00	-7.43135289e-06	-3.30738041e-06	-4.12397248e-06
4.12           	4.05328279e-07	2.55411225e+00	-7.24188826e-06	-3.21561585e-06	-4.02627241e-06
4.14           	4.02351015e-07	2.55261543e+00	-7.26130428e-06	-3.22830112e-06	-4.03300315e-06
4.16           	3.99385785e-07	2.55113093e+00	-6.90790561e-06	-3.05456702e-06	-3.85333859e-06
4.18           	3.96441001e-07	2.54965387e+00	-6.32089603e-06	-2.76400701e-06	-3.55688901e-06
4.2            	3.93463748e-07	2.54818449e+00	-6.22452906e-06	-2.71880078e-06	-3.50572828e-06
4.22           	3.90462818e-07	2.54673413e+00	-6.36621586e-06	-2.79264511e-06	-3.57357075e-06
4.24           	3.87462856e-07	2.54528930e+00	-6.80853897e-06	-3.01680663e-06	-3.79173234e-06
4.26           	3.84484084e-07	2.54385117e+00	-7.15414199e-06	-3.19258691e-06	-3.96155508e-06
4.28           	3.81651318e-07	2.54242131e+00	-7.36882483e-06	-3.30276110e-06	-4.06606373e-06
4.3            	3.78800297e-07	2.54099900e+00	-7.72052869e-06	-3.48146405e-06	-4.23906464e-06
4.32           	3.75924670e-07	2.53958687e+00	-8.12148165e-06	-3.68481615e-06	-4.43666549e-06
4.34           	3.73031375e-07	2.53818314e+00	-8.49888041e-06	-3.87640883e-06	-4.62247158e-06
4.36           	3.70129654e-07	2.53678756e+00	-8.92756324e-06	-4.09365197e-06	-4.83391128e-06
4.38           	3.67221082e-07	2.53539981e+00	-9.50486978e-06	-4.38521381e-06	-5.11965597e-06
4.4            	3.65208005e-07	2.53401994e+00	-1.02729140e-05	-4.77124902e-06	-5.50166503e-06
4.42           	3.64934917e-07	2.53264855e+00	-1.04744514e-05	-4.87229077e-06	-5.60216060e-06
4.44           	3.66093384e-07	2.53128539e+00	-1.03680678e-05	-4.81794051e-06	-5.55012727e-06
4.46           	3.67980915e-07	2.52992893e+00	-1.02871718e-05	-4.77560496e-06	-5.51156679e-06
4.48           	3.69899637e-07	2.52858485e+00	-1.04047390e-05	-4.83246987e-06	-5.57226914e-06
4.5            	3.71435815e-07	2.52724666e+00	-1.04450494e-05	-4.85108891e-06	-5.59396054e-06
4.52           	3.72334113e-07	2.52591237e+00	-1.04061871e-05	-4.83075942e-06	-5.57542764e-06
4.54           	3.72602617e-07	2.52458594e+00	-1.03987673e-05	-4.82678103e-06	-5.57198626e-06
4.56           	3.72412134e-07	2.52326783e+00	-9.96466764e-06	-4.60992169e-06	-5.35474596e-06
4.58           	3.71620684e-07	2.52195897e+00	-9.51381162e-06	-4.38528512e-06	-5.12852649e-06
4.6            	3.70319901e-07	2.52065683e+00	-9.45284676e-06	-4.35610348e-06	-5.09674328e-06
4.62           	3.68649532e-07	2.51936253e+00	-9.30631123e-06	-4.28450608e-06	-5.02180515e-06
4.64           	3.66712031e-07	2.51807501e+00	-9.09532644e-06	-4.18095119e-06	-4.91437525e-06
4.66           	3.64544450e-07	2.51679471e+00	-9.11908244e-06	-4.19499677e-06	-4.92408567e-06
4.68           	3.62183380e-07	2.51552135e+00	-9.34261985e-06	-4.30912655e-06	-5.03349331e-06
4.7            	3.59663123e-07	2.51425566e+00	-1.00464114e-05	-4.66354259e-06	-5.38286884e-06
4.72           	3.57036546e-07	2.51299757e+00	-1.04650769e-05	-4.87550191e-06	-5.58957500e-06
4.74           	3.54326279e-07	2.51174753e+00	-1.06999669e-05	-4.99565715e-06	-5.70430970e-06
4.76           	3.51526776e-07	2.51050406e+00	-1.11128584e-05	-5.20490243e-06	-5.90795598e-06
4.78           	3.48635183e-07	2.50926481e+00	-1.17574600e-05	-5.53009482e-06	-6.22736519e-06
4.8            	3.45685481e-07	2.50803979e+00	-1.22202751e-05	-5.76445205e-06	-6.45582301e-06
4.82           	3.42669994e-07	2.50681722e+00	-1.22047864e-05	-5.75972320e-06	-6.44506319e-06
4.84           	3.39630533e-07	2.50559919e+00	-1.30639435e-05	-6.19234124e-06	-6.87160230e-06
4.86           	3.36516073e-07	2.50438927e+00	-1.26542785e-05	-5.99062319e-06	-6.66365534e-06
4.88           	3.33342997e-07	2.50318642e+00	-1.27368552e-05	-6.03508459e-06	-6.70177058e-06
4.9            	3.30106536e-07	2.50199054e+00	-1.25474953e-05	-5.94364111e-06	-6.60385418e-06
4.92           	3.26810211e-07	2.50079454e+00	-1.24642761e-05	-5.90532786e-06	-6.55894828e-06
4.94           	3.23449861e-07	2.49960672e+00	-1.24047433e-05	-5.87892180e-06	-6.52582152e-06
4.96           	3.20031055e-07	2.49842728e+00	-1.22597459e-05	-5.80984188e-06	-6.44990399e-06
4.98           	3.16555060e-07	2.49725545e+00	-1.21037467e-05	-5.73531828e-06	-6.36842840e-06
5              	3.12724851e-07	2.49609060e+00	-1.19245019e-05	-5.64952612e-06	-6.27497582e-06
5.02           	3.07233610e-07	2.49493224e+00	-1.17688958e-05	-5.57721428e-06	-6.19168150e-06
5.04           	2.99449690e-07	2.49378015e+00	-1.16373816e-05	-5.51924110e-06	-6.11814048e-06
5.06           	2.90274336e-07	2.49263350e+00	-1.12558120e-05	-5.33763165e-06	-5.91818032e-06
5.08           	2.80744062e-07	2.49149363e+00	-1.14929638e-05	-5.46573783e-06	-6.02722596e-06
5.1            	2.71659701e-07	2.49036340e+00	-1.11804756e-05	-5.31857812e-06	-5.86189752e-06
5.12           	2.62715569e-07	2.48923935e+00	-1.13414624e-05	-5.40801561e-06	-5.93344675e-06
5.14           	2.54420939e-07	2.48811876e+00	-1.13802025e-05	-5.43568030e-06	-5.94452217e-06
5.16           	2.47147285e-07	2.48700343e+00	-1.13836810e-05	-5.44469319e-06	-5.93898776e-06
5.18           	2.40875778e-07	2.48590033e+00	-1.14522509e-05	-5.48524967e-06	-5.96700122e-06
5.2            	2.35450651e-07	2.48479529e+00	-1.15821176e-05	-5.55560813e-06	-6.02650943e-06
5.22           	2.30665449e-07	2.48369642e+00	-1.17516474e-05	-5.64515825e-06	-6.10648915e-06
5.24           	2.26360056e-07	2.48260388e+00	-1.14017237e-05	-5.47450181e-06	-5.92722192e-06
5.26           	2.22355130e-07	2.48151538e+00	-1.18476610e-05	-5.70147538e-06	-6.14618564e-06
5.28           	2.18495158e-07	2.48043609e+00	-1.18497979e-05	-5.70640380e-06	-6.14339411e-06
5.3            	2.14712262e-07	2.47936585e+00	-1.13561058e-05	-5.46334066e-06	-5.89276518e-06
5.32           	2.11002324e-07	2.47830485e+00	-1.08565688e-05	-5.21728206e-06	-5.63928671e-06
5.34           	2.07357820e-07	2.47723806e+00	-1.03942812e-05	-4.98978278e-06	-5.40449842e-06
5.36           	2.03776145e-07	2.47617625e+00	-9.84721259e-06	-4.71983015e-06	-5.12738244e-06
5.38           	2.00248541e-07	2.47512456e+00	-9.46064273e-06	-4.53007282e-06	-4.93056991e-06
5.4            	1.96768489e-07	2.47408132e+00	-8.70277703e-06	-4.15462002e-06	-4.54815700e-06
5.42           	1.93306826e-07	2.47304257e+00	-8.07822084e-06	-3.84580359e-06	-4.23241725e-06
5.44           	1.89871287e-07	2.47201189e+00	-8.06130978e-06	-3.84078360e-06	-4.22052618e-06
5.46           	1.86446843e-07	2.47098348e+00	-7.90726825e-06	-3.76718728e-06	-4.14008097e-06
5.48           	1.83054951e-07	2.46996054e+00	-7.67346305e-06	-3.65367657e-06	-4.01978648e-06
5.5            	1.79673427e-07	2.46894380e+00	-7.45147347e-06	-3.54606331e-06	-3.90541016e-06
5.52           	1.76299030e-07	2.46793328e+00	-7.27534008e-06	-3.46137101e-06	-3.81396907e-06
5.54           	1.72939619e-07	2.46692879e+00	-7.08985871e-06	-3.37198973e-06	-3.71786897e-06
5.56           	1.69600890e-07	2.46592982e+00	-6.93933694e-06	-3.30006758e-06	-3.63926936e-06
5.58           	1.66282242e-07	2.46493618e+00	-6.74782314e-06	-3.20762933e-06	-3.54019381e-06
5.6            	1.62981839e-07	2.46394839e+00	-6.60124494e-06	-3.13764063e-06	-3.46360431e-06
5.62           	1.59704563e-07	2.46296625e+00	-6.48503942e-06	-3.08281514e-06	-3.40222427e-06
5.64           	1.56450760e-07	2.46198971e+00	-6.29690638e-06	-2.99200243e-06	-3.30490395e-06
5.66           	1.53228720e-07	2.46101829e+00	-5.86313480e-06	-2.77833868e-06	-3.08479612e-06
5.68           	1.50032409e-07	2.46005208e+00	-5.42901860e-06	-2.56447689e-06	-2.86454171e-06
5.7            	1.46873290e-07	2.45909148e+00	-4.63054823e-06	-2.16840082e-06	-2.46214741e-06
5.72           	1.43713489e-07	2.45813609e+00	-4.50199074e-06	-2.10728188e-06	-2.39470886e-06
5.74           	1.40577727e-07	2.45718630e+00	-4.44379223e-06	-2.08131839e-06	-2.36247384e-06
5.76           	1.37479666e-07	2.45623902e+00	-4.35139877e-06	-2.03821972e-06	-2.31317905e-06
5.78           	1.34417598e-07	2.45529841e+00	-3.84680893e-06	-1.78898687e-06	-2.05782206e-06
5.8            	1.31428109e-07	2.45436700e+00	-5.00866238e-06	-2.37290308e-06	-2.63575930e-06
5.82           	1.28456228e-07	2.45343886e+00	-4.37751765e-06	-2.06030260e-06	-2.31721505e-06
5.84           	1.25534780e-07	2.45251819e+00	-3.92826876e-06	-1.83859960e-06	-2.08966916e-06
5.86           	1.22656215e-07	2.45160352e+00	-3.84485637e-06	-1.79977197e-06	-2.04508440e-06
5.88           	1.19812450e-07	2.45069588e+00	-3.96905927e-06	-1.86471719e-06	-2.10434209e-06
5.9            	1.17006665e-07	2.44979487e+00	-4.34427201e-06	-2.05512934e-06	-2.28914267e-06
5.92           	1.14254649e-07	2.44890119e+00	-4.34827922e-06	-2.05988496e-06	-2.28839426e-06
5.94           	1.11532606e-07	2.44801532e+00	-4.45004027e-06	-2.11348753e-06	-2.33655274e-06
5.96           	1.08873072e-07	2.44713695e+00	-3.99814187e-06	-1.89019786e-06	-2.10794401e-06
5.98           	1.06262020e-07	2.44626523e+00	-3.49088824e-06	-1.63918210e-06	-1.85170614e-06
6              	1.03699411e-07	2.44540049e+00	-2.93093921e-06	-1.36177019e-06	-1.56916901e-06
6.02           	1.01184563e-07	2.44454324e+00	-2.34247116e-06	-1.07005102e-06	-1.27242014e-06
6.04           	9.87175791e-08	2.44369503e+00	-1.83398634e-06	-8.18275593e-07	-1.01571075e-06
6.06           	9.63033306e-08	2.44285626e+00	-1.31961189e-06	-5.63502617e-07	-7.56109278e-07
6.08           	9.39452438e-08	2.44202779e+00	-8.29482145e-07	-3.20795829e-07	-5.08686317e-07
6.1            	9.16405226e-08	2.44120929e+00	-3.82291297e-07	-9.95051258e-08	-2.82786171e-07
6.12           	8.93789744e-08	2.44040068e+00	1.04838948e-07	1.41798448e-07	-3.69595006e-08
6.14           	8.71940490e-08	2.43960202e+00	4.86500992e-07	3.30444545e-07	1.56056447e-07
6.16           	8.50878992e-08	2.43881575e+00	8.45076319e-07	5.07626059e-07	3.37450260e-07
6.18           	8.30478274e-08	2.43804205e+00	1.01059006e-06	5.88342857e-07	4.22247202e-07
6.2            	8.11068676e-08	2.43727865e+00	1.68736965e-06	9.24791693e-07	7.62577957e-07
6.22           	7.92514405e-08	2.43653833e+00	1.42443084e-06	7.91466861e-07	6.32963980e-07
6.24           	7.74523785e-08	2.43581692e+00	1.55468719e-06	8.54795975e-07	6.99891218e-07
6.26           	7.56688569e-08	2.43511780e+00	2.17987805e-06	1.16560788e-06	1.01427017e-06
6.28           	7.40048594e-08	2.43443933e+00	2.06647342e-06	1.10724157e-06	9.59231850e-07
6.3            	7.24448461e-08	2.43378428e+00	2.14898950e-06	1.14693959e-06	1.00204990e-06