# Force coefficients
# liftDir      : (0.00000000e+00 1.00000000e+00 0.00000000e+00)
# dragDir      : (1.00000000e+00 0.00000000e+00 0.00000000e+00)
# pitchAxis    : (0.00000000e+00 0.00000000e+00 1.00000000e+00)
# magUInf      : 1.00000000e+00
# lRef         : 2.00000000e+00
# Aref         : 2.00000000e+00
# CofR         : (0.00000000e+00 0.00000000e+00 0.00000000e+00)
#              
# Time         	Cm             	Cd             	Cl             	Cl(f)          	Cl(r)          
0.02           	-9.13437026e-07	1.60709560e+02	1.68515542e-04	8.33443338e-05	8.51712078e-05
0.04           	4.79526449e-07	7.20294362e+00	-8.15117527e-05	-4.02763499e-05	-4.12354028e-05
0.06           	2.25725060e-07	-1.25213652e+01	8.47102084e-05	4.25808292e-05	4.21293791e-05
0.08           	-6.92793675e-08	-7.71596943e+00	1.70555497e-04	8.52084692e-05	8.53470279e-05
0.1            	-2.63248514e-07	-2.64390614e+00	-2.44202168e-06	-1.48425935e-06	-9.57762325e-07
0.12           	-3.29473030e-07	1.30724530e-01	1.92042562e-05	9.27265508e-06	9.93160114e-06
0.14           	-3.40506216e-07	1.39397327e+00	-3.15066646e-05	-1.60938385e-05	-1.54128261e-05
0.16           	-3.21351984e-07	1.91138831e+00	-1.98186011e-05	-1.02306525e-05	-9.58794856e-06
0.18           	-2.93128006e-07	2.09948973e+00	-1.04089615e-05	-5.49760876e-06	-4.91135275e-06
0.2            	-2.64199926e-07	2.14976195e+00	-5.28219799e-06	-2.90529892e-06	-2.37689907e-06
0.22           	-2.38013593e-07	2.14441963e+00	-3.05088694e-06	-1.76345706e-06	-1.28742988e-06
0.24           	-2.15397563e-07	2.11780278e+00	-1.01502059e-06	-7.22907860e-07	-2.92112735e-07
0.26           	-1.96108489e-07	2.08486314e+00	-1.37522704e-06	-8.83722011e-07	-4.91505032e-07
0.28           	-1.80257143e-07	2.05008886e+00	-1.69156720e-06	-1.02604074e-06	-6.65526457e-07
0.3            	-1.66946778e-07	2.01526976e+00	-2.40767635e-06	-1.37078495e-06	-1.03689140e-06
0.32           	-1.55582096e-07	1.98134202e+00	-1.56572287e-06	-9.38443529e-07	-6.27279336e-07
0.34           	-1.45765807e-07	1.94903952e+00	-1.28660154e-06	-7.89066578e-07	-4.97534964e-07
0.36           	-1.37143339e-07	1.91841116e+00	-1.06706988e-06	-6.70678277e-07	-3.96391600e-07
0.38           	-1.29406339e-07	1.88961032e+00	-9.49196856e-07	-6.04004767e-07	-3.45192089e-07
0.4            	-1.22517666e-07	1.86281489e+00	-7.35651427e-07	-4.90343379e-07	-2.45308048e-07
0.42           	-1.16282210e-07	1.83764445e+00	-8.57412068e-07	-5.44988243e-07	-3.12423824e-07
0.44           	-1.10647318e-07	1.81407001e+00	-7.70686198e-07	-4.95990417e-07	-2.74695781e-07
0.46           	-1.05491926e-07	1.79213474e+00	-8.39641236e-07	-5.25312543e-07	-3.14328692e-07
0.48           	-1.00735089e-07	1.77159353e+00	-8.35079426e-07	-5.18274802e-07	-3.16804624e-07
0.5            	-9.63608653e-08	1.75271337e+00	-6.77710590e-07	-4.35216160e-07	-2.42494430e-07
0.52           	-9.22957142e-08	1.73505177e+00	-7.65121721e-07	-4.74856575e-07	-2.90265147e-07
0.54           	-8.85397813e-08	1.71859926e+00	-5.30059001e-07	-3.53569282e-07	-1.76489719e-07
0.56           	-8.50661472e-08	1.70330433e+00	-6.44302660e-07	-4.07217477e-07	-2.37085183e-07
0.58           	-8.18773299e-08	1.68858258e+00	-5.28473762e-07	-3.46114211e-07	-1.82359551e-07
0.6            	-7.89033431e-08	1.67470068e+00	-6.77945353e-07	-4.17876020e-07	-2.60069333e-07
0.62           	-7.61307334e-08	1.66177105e+00	-6.48700594e-07	-4.00481030e-07	-2.48219564e-07
0.64           	-7.35046498e-08	1.65021925e+00	-6.46707408e-07	-3.96858354e-07	-2.49849054e-07
0.66           	-7.12236625e-08	1.63944429e+00	-9.42092873e-07	-5.42270099e-07	-3.99822774e-07
0.68           	-6.89177511e-08	1.62948824e+00	-2.57089302e-07	-1.97462402e-07	-5.96269000e-08
0.7            	-6.68665208e-08	1.62023221e+00	-4.03268899e-07	-2.68500970e-07	-1.34767929e-07
0.72           	-6.49013240e-08	1.61155245e+00	-3.48876838e-07	-2.39339743e-07	-1.09537095e-07
0.74           	-6.30406592e-08	1.60366231e+00	-3.41187556e-07	-2.33634437e-07	-1.07553119e-07
0.76           	-6.08878166e-08	1.59636696e+00	-3.33187873e-07	-2.27481753e-07	-1.05706120e-07
0.78           	-5.96703435e-08	1.58962534e+00	-2.96535889e-07	-2.07938288e-07	-8.85976011e-08
0.8            	-5.78571256e-08	1.58328495e+00	-6.96025441e-08	-9.26583977e-08	2.30558535e-08
0.82           	-5.67349792e-08	1.57738120e+00	-1.15274162e-08	-6.24986873e-08	5.09712711e-08
0.84           	-1.20360129e-07	1.57192010e+00	-1.00585753e-08	-1.25389417e-07	1.15330842e-07
0.86           	-2.67340994e-07	1.56712789e+00	-5.70329422e-07	-5.52505705e-07	-1.78237167e-08
0.88           	-4.03200163e-07	1.56282738e+00	-9.49061738e-07	-8.77731032e-07	-7.13307057e-08
0.9            	-4.60076767e-07	1.55877760e+00	-1.66009706e-06	-1.29012530e-06	-3.69971762e-07
0.92           	-3.67259743e-07	1.55503646e+00	-1.55052538e-06	-1.14252244e-06	-4.08002949e-07
0.94           	-7.26267133e-07	1.55170421e+00	-2.84809299e-06	-2.15031363e-06	-6.97779360e-07
0.96           	-8.04130834e-07	1.54854746e+00	-3.04669105e-06	-2.32747636e-06	-7.19214689e-07
0.98           	-8.74240145e-07	1.54581913e+00	-3.35043724e-06	-2.54945876e-06	-8.00978474e-07
1              	-9.39341169e-07	1.54284685e+00	-3.47336463e-06	-2.67602348e-06	-7.97341144e-07
1.02           	-8.71362264e-07	1.54055577e+00	-2.66559274e-06	-2.20415863e-06	-4.61434106e-07
1.04           	-5.35297200e-07	1.53881000e+00	-1.60517123e-06	-1.33788282e-06	-2.67288417e-07
1.06           	9.28447714e-07	1.53668511e+00	2.62528543e-06	2.24109043e-06	3.84195002e-07
1.08           	2.59825338e-06	1.53502075e+00	8.24227607e-06	6.71939141e-06	1.52288466e-06
1.1            	2.94740461e-06	1.53345518e+00	1.02922403e-05	8.09352476e-06	2.19871554e-06
1.12           	2.22071239e-06	1.53301872e+00	7.56253286e-06	6.00197882e-06	1.56055404e-06
1.14           	1.31037070e-06	1.53147864e+00	5.12909361e-06	3.87491750e-06	1.25417611e-06
1.16           	5.47033558e-07	1.53081394e+00	2.17903575e-06	1.63655143e-06	5.42484316e-07
1.18           	-1.27879982e-07	1.52965231e+00	5.78088354e-07	1.61164195e-07	4.16924159e-07
1.2            	-8.45302004e-07	1.52905407e+00	-3.02040867e-06	-2.35550634e-06	-6.64902333e-07
1.22           	-9.22092451e-07	1.52874989e+00	-2.17461705e-06	-2.00940098e-06	-1.65216076e-07
1.24           	1.99998294e-06	1.52863252e+00	2.56646457e-06	3.28321523e-06	-7.16750656e-07
1.26           	1.40737192e-06	1.52827186e+00	2.62886132e-06	2.72180258e-06	-9.29412610e-08
1.28           	-6.80121112e-07	1.52825572e+00	-4.21091236e-06	-2.78557729e-06	-1.42533507e-06
1.3            	-7.00423612e-07	1.52824888e+00	-2.41867786e-06	-1.90976254e-06	-5.08915316e-07
1.32           	-7.60848728e-07	1.52832138e+00	-2.29751955e-06	-1.90960850e-06	-3.87911048e-07
1.34           	-6.24604135e-07	1.52853272e+00	-2.26616389e-06	-1.75768608e-06	-5.08477810e-07
1.36           	-2.97022490e-07	1.52858007e+00	-1.40026623e-06	-9.97155604e-07	-4.03110625e-07
1.38           	1.40476732e-06	1.52892945e+00	4.44745145e-06	3.62849304e-06	8.18958402e-07
1.4            	-3.56913534e-07	1.52929352e+00	-9.92983153e-07	-8.53405111e-07	-1.39578043e-07
1.42           	-2.83238764e-07	1.52978773e+00	-1.08081529e-06	-8.23646408e-07	-2.57168881e-07
1.44           	-2.24391391e-07	1.53052019e+00	-1.24014744e-07	-2.86398763e-07	1.62384020e-07
1.46           	-1.79921184e-07	1.53160015e+00	1.01593023e-07	-1.29124673e-07	2.30717696e-07
1.48           	-2.06257371e-07	1.53168652e+00	3.29369868e-07	-4.15724363e-08	3.70942305e-07
1.5            	-2.35587912e-07	1.53249094e+00	4.22210357e-07	-2.44827331e-08	4.46693090e-07
1.52           	-2.85019941e-07	1.53344557e+00	-4.67183101e-08	-3.08379096e-07	2.61660786e-07
1.54           	-3.29589397e-07	1.53396611e+00	-2.23602345e-07	-4.41390569e-07	2.17788224e-07
1.56           	-3.69035222e-07	1.53484048e+00	-2.94979501e-07	-5.16524972e-07	2.21545472e-07
1.58           	-3.99085955e-07	1.53570106e+00	-7.88898231e-07	-7.93535070e-07	4.63683929e-09
1.6            	-3.49484452e-07	1.53665863e+00	-4.77567692e-07	-5.88268298e-07	1.10700607e-07
1.62           	-3.98912889e-07	1.53780536e+00	-3.73307307e-07	-5.85566542e-07	2.12259235e-07
1.64           	-4.04622778e-07	1.53910797e+00	-3.82358027e-07	-5.95801792e-07	2.13443765e-07
1.66           	-4.05449299e-07	1.53944759e+00	-6.25517858e-07	-7.18208227e-07	9.26903696e-08
1.68           	-3.65599325e-07	1.54042422e+00	-2.66297472e-07	-4.98748061e-07	2.32450589e-07
1.7            	-3.15000027e-07	1.54165327e+00	-5.13982305e-07	-5.71991180e-07	5.80088748e-08
1.72           	-2.60247424e-07	1.54248468e+00	-1.05078767e-07	-3.12786807e-07	2.07708040e-07
1.74           	-2.04974654e-07	1.54348106e+00	2.76560804e-07	-6.66942519e-08	3.43255056e-07
1.76           	-1.48886148e-07	1.54441405e+00	3.16503076e-07	9.36539013e-09	3.07137686e-07
1.78           	-9.32360917e-08	1.54568530e+00	6.09792402e-07	2.11660109e-07	3.98132293e-07
1.8            	-3.80221812e-08	1.54675524e+00	6.50358355e-07	2.87156996e-07	3.63201359e-07
1.82           	7.36418368e-09	1.54796619e+00	1.12075309e-06	5.67740731e-07	5.53012364e-07
1.84           	4.33744957e-08	1.54904492e+00	1.27815902e-06	6.82454006e-07	5.95705014e-07
1.86           	-1.42200710e-08	1.54993921e+00	1.63573872e-06	8.03649290e-07	8.32089432e-07
1.88           	-7.85574677e-08	1.55119405e+00	1.20343150e-06	5.23158284e-07	6.80273220e-07
1.9            	-1.30855407e-07	1.55208123e+00	8.87898962e-07	3.13094074e-07	5.74804888e-07
1.92           	-1.89407712e-07	1.55276257e+00	8.12241317e-07	2.16712946e-07	5.95528370e-07
1.94           	-2.35751546e-07	1.55371560e+00	8.00898071e-07	1.64697489e-07	6.36200582e-07
1.96           	-2.72774098e-07	1.55468487e+00	4.87142401e-07	-2.92028973e-08	5.16345298e-07
1.98           	-3.01684900e-07	1.55569197e+00	-2.75719568e-07	-4.39544684e-07	1.63825116e-07
2              	-3.23842046e-07	1.55668659e+00	-3.74149545e-07	-5.10916819e-07	1.36767273e-07
2.02           	-3.38558213e-07	1.55795410e+00	-6.39053047e-07	-6.58084737e-07	1.90316900e-08
2.04           	-3.46775751e-07	1.55846597e+00	-9.96848696e-07	-8.45200100e-07	-1.51648597e-07
2.06           	-3.58264053e-07	1.55937302e+00	-4.29750906e-07	-5.73139506e-07	1.43388600e-07
2.08           	-3.63525987e-07	1.56063447e+00	-9.03634841e-07	-8.15343407e-07	-8.82914336e-08
2.1            	-3.18349114e-07	1.56121268e+00	-9.94559695e-07	-8.15628962e-07	-1.78930733e-07
2.12           	-2.61457108e-07	1.56201868e+00	-5.16722275e-07	-5.19818246e-07	3.09597102e-09
2.14           	-2.06533421e-07	1.56270399e+00	-9.96309860e-07	-7.04688352e-07	-2.91621509e-07
2.16           	-1.57736454e-07	1.56378632e+00	-7.30661230e-07	-5.23067069e-07	-2.07594160e-07
2.18           	-1.16255272e-07	1.56444756e+00	-7.77800886e-07	-5.05155715e-07	-2.72645170e-07
2.2            	-8.18236658e-08	1.56522842e+00	-4.61967740e-07	-3.12807536e-07	-1.49160204e-07
2.22           	-5.38104530e-08	1.56596177e+00	-3.78319972e-07	-2.42970439e-07	-1.35349533e-07
2.24           	-3.12465487e-08	1.56692942e+00	-4.19706325e-07	-2.41099711e-07	-1.78606614e-07
2.26           	-1.31846498e-08	1.56775704e+00	-2.34761389e-07	-1.30565344e-07	-1.04196045e-07
2.28           	1.19247191e-09	1.56854510e+00	-1.86446926e-07	-9.20309912e-08	-9.44159350e-08
2.3            	1.26512600e-08	1.56934188e+00	-1.33415604e-07	-5.40565420e-08	-7.93590619e-08
2.32           	2.17734843e-08	1.57031278e+00	-2.32124042e-09	2.06128640e-08	-2.29341045e-08
2.34           	2.89353518e-08	1.57098236e+00	-3.20633654e-08	1.29036691e-08	-4.49670346e-08
2.36           	3.46071726e-08	1.57146410e+00	1.95800727e-07	1.32507536e-07	6.32931909e-08
2.38           	3.91896934e-08	1.57222465e+00	9.69322021e-08	8.76557944e-08	9.27640768e-09
2.4            	4.30097969e-08	1.57299793e+00	6.20350534e-08	7.40273236e-08	-1.19922702e-08
2.42           	4.60240944e-08	1.57372459e+00	3.30300333e-07	2.11174261e-07	1.19126072e-07
2.44           	4.84191995e-08	1.57485086e+00	2.79316467e-08	6.23850229e-08	-3.44533762e-08
2.46           	5.03036353e-08	1.57536126e+00	1.01722016e-07	1.01164643e-07	5.57372739e-10
2.48           	5.20566779e-08	1.57612752e+00	3.53884219e-07	2.28998788e-07	1.24885432e-07
2.5            	5.32503069e-08	1.57676967e+00	8.54555501e-09	5.75230844e-08	-4.89775294e-08
2.52           	5.39772007e-08	1.57768276e+00	3.17459910e-07	2.12707155e-07	1.04752754e-07
2.54           	5.42071273e-08	1.57834242e+00	2.32628563e-07	1.70521409e-07	6.21071543e-08
2.56           	5.38808790e-08	1.57916385e+00	2.46431998e-07	1.77096878e-07	6.93351200e-08
2.58           	5.29527145e-08	1.57997925e+00	2.21791282e-07	1.63848356e-07	5.79429266e-08
2.6            	5.15566884e-08	1.58102829e+00	3.16279591e-07	2.09696484e-07	1.06583107e-07
2.62           	4.96300965e-08	1.58121246e+00	5.79344996e-07	3.39302594e-07	2.40042401e-07
2.64           	4.72765996e-08	1.58212995e+00	4.39898276e-07	2.67225738e-07	1.72672538e-07
2.66           	4.43937644e-08	1.58298891e+00	1.28696692e-07	1.08742110e-07	1.99545816e-08
2.68           	4.09542696e-08	1.58382484e+00	2.96764964e-07	1.89336752e-07	1.07428212e-07
2.7            	3.69690355e-08	1.58458762e+00	4.05216068e-07	2.39577070e-07	1.65638999e-07
2.72           	3.25777965e-08	1.58539363e+00	3.39425817e-07	2.02290705e-07	1.37135112e-07
2.74           	2.77349578e-08	1.58625457e+00	3.18405185e-07	1.86937550e-07	1.31467635e-07
2.76           	2.35353231e-08	1.58710524e+00	3.20799838e-07	1.83935242e-07	1.36864596e-07
2.78           	1.92754533e-08	1.58795299e+00	3.73804335e-07	2.06177621e-07	1.67626714e-07
2.8            	1.47762316e-08	1.58884017e+00	1.02161005e-07	6.58567341e-08	3.63042708e-08
2.82           	1.00486871e-08	1.58996224e+00	2.06318166e-07	1.13207770e-07	9.31103961e-08
2.84           	5.11978791e-09	1.59068092e+00	-1.17059923e-08	-7.33208234e-10	-1.09727841e-08
2.86           	5.04188808e-11	1.59176685e+00	4.11428498e-07	2.05764668e-07	2.05663830e-07
2.88           	-5.04512881e-09	1.59257807e+00	6.97005398e-08	2.98051411e-08	3.98953987e-08
2.9            	-1.00082109e-08	1.59362432e+00	-7.90651481e-08	-4.95407850e-08	-2.95243631e-08
2.92           	-1.49975661e-08	1.59421728e+00	5.30511365e-09	-1.23450093e-08	1.76501229e-08
2.94           	-1.96110678e-08	1.59527024e+00	-4.07234402e-07	-2.23228269e-07	-1.84006133e-07
2.96           	-2.39769490e-08	1.59643412e+00	-1.25218482e-07	-8.65861901e-08	-3.86322921e-08
2.98           	-2.78681327e-08	1.59761309e+00	9.58229779e-07	4.51246757e-07	5.06983022e-07
3              	-3.17110154e-08	1.59883436e+00	1.34339109e-08	-2.49940599e-08	3.84279708e-08
3.02           	-3.56309060e-08	1.60007266e+00	3.32014757e-08	-1.90301681e-08	5.22316438e-08
3.04           	-3.96255549e-08	1.60129292e+00	2.58156929e-07	8.94529096e-08	1.68704019e-07
3.06           	-4.36087930e-08	1.60283444e+00	5.25706828e-07	2.19244621e-07	3.06462207e-07
3.08           	-4.72629264e-08	1.60417995e+00	5.48822782e-07	2.27148465e-07	3.21674318e-07
3.1            	-5.04024326e-08	1.60559411e+00	4.00831847e-07	1.50013491e-07	2.50818356e-07
3.12           	-5.29158738e-08	1.60679443e+00	4.96060106e-07	1.95114179e-07	3.00945927e-07
3.14           	-5.47621668e-08	1.60803307e+00	-2.88041497e-07	-1.98782915e-07	-8.92585817e-08
3.16           	-5.46852736e-08	1.60930718e+00	3.46319687e-07	1.18474570e-07	2.27845117e-07
3.18           	-5.23989498e-08	1.61036388e+00	1.09378361e-06	4.94492857e-07	5.99290756e-07
3.2            	-4.82437817e-08	1.61151596e+00	-8.38392392e-07	-4.67439978e-07	-3.70952414e-07
3.22           	-4.25826664e-08	1.61265059e+00	2.11658895e-07	6.32467811e-08	1.48412114e-07
3.24           	-3.57782002e-08	1.61326283e+00	1.05757833e-06	4.93010966e-07	5.64567367e-07
3.26           	-2.83826121e-08	1.61386345e+00	-7.53245345e-07	-4.05005285e-07	-3.48240060e-07
3.28           	-2.07352354e-08	1.61442901e+00	3.43060317e-07	1.50794923e-07	1.92265394e-07
3.3            	-1.31051022e-08	1.61482831e+00	3.53609958e-07	1.63699877e-07	1.89910081e-07
3.32           	-5.71067263e-09	1.61534298e+00	1.13359318e-07	5.09689865e-08	6.23903317e-08
3.34           	1.24742734e-09	1.61580334e+00	-3.36497529e-07	-1.67001337e-07	-1.69496192e-07
3.36           	7.74585236e-09	1.61569366e+00	-3.40888883e-07	-1.62698589e-07	-1.78190294e-07
3.38           	1.37164773e-08	1.61575327e+00	-1.81570050e-07	-7.70685479e-08	-1.04501502e-07
3.4            	1.91364943e-08	1.61570175e+00	-3.29190348e-07	-1.45458680e-07	-1.83731668e-07
3.42           	2.40334328e-08	1.61558850e+00	-2.36861897e-07	-9.43975159e-08	-1.42464382e-07
3.44           	2.84266715e-08	1.61542471e+00	-2.22206437e-07	-8.26765470e-08	-1.39529890e-07
3.46           	3.23420967e-08	1.61520375e+00	-1.79144340e-07	-5.72300733e-08	-1.21914267e-07
3.48           	3.58099278e-08	1.61491852e+00	-2.13170394e-07	-7.07752690e-08	-1.42395125e-07
3.5            	3.88712105e-08	1.61439734e+00	-2.70044378e-07	-9.61509785e-08	-1.73893400e-07
3.52           	4.15654776e-08	1.61435874e+00	-2.73300095e-07	-9.50845698e-08	-1.78215525e-07
3.54           	4.39412072e-08	1.61373769e+00	-1.92573427e-07	-5.23455064e-08	-1.40227921e-07
3.56           	4.60289938e-08	1.61324623e+00	5.52050763e-09	4.87892476e-08	-4.32687400e-08
3.58           	4.78539454e-08	1.61261548e+00	-2.72239311e-07	-8.82657102e-08	-1.83973601e-07
3.6            	4.94419489e-08	1.61239645e+00	-2.41237302e-07	-7.11767022e-08	-1.70060600e-07
3.62           	5.08747148e-08	1.61144197e+00	6.31557950e-07	3.66653690e-07	2.64904260e-07
3.64           	5.21554295e-08	1.61087828e+00	-8.80861649e-07	-3.88275395e-07	-4.92586254e-07
3.66           	5.32396438e-08	1.61005616e+00	1.07294406e-07	1.06886847e-07	4.07559002e-10
3.68           	5.41534839e-08	1.60934487e+00	-1.68988834e-08	4.57040422e-08	-6.26029256e-08
3.7            	5.49211541e-08	1.60866070e+00	-3.66505172e-08	3.65958955e-08	-7.32464127e-08
3.72           	5.55475646e-08	1.60783657e+00	-8.49918381e-08	1.30516456e-08	-9.80434837e-08
3.74           	5.60837289e-08	1.60699712e+00	6.21151859e-08	8.71413218e-08	-2.50261360e-08
3.76           	5.65364812e-08	1.60626775e+00	-1.14173427e-07	-5.50232327e-10	-1.13623195e-07
3.78           	5.69110654e-08	1.60550073e+00	6.18033125e-10	5.72200820e-08	-5.66020489e-08
3.8            	5.74790900e-08	1.60467514e+00	1.51311409e-07	1.33134795e-07	1.81766148e-08
3.82           	5.83156342e-08	1.60382698e+00	2.04896181e-07	1.60763725e-07	4.41324562e-08
3.84           	5.94442284e-08	1.60294129e+00	2.31322663e-07	1.75105560e-07	5.62171033e-08
3.86           	6.08309523e-08	1.60205705e+00	2.49107512e-07	1.85384708e-07	6.37228035e-08
3.88           	6.24384208e-08	1.60115878e+00	1.44176410e-07	1.34526626e-07	9.64978415e-09
3.9            	6.42251716e-08	1.60027862e+00	1.78411052e-07	1.53430697e-07	2.49803543e-08
3.92           	6.61334483e-08	1.59936880e+00	1.71712330e-07	1.51989614e-07	1.97227169e-08
3.94           	6.81574070e-08	1.59844918e+00	2.09227360e-07	1.72771087e-07	3.64562732e-08
3.96           	7.02607408e-08	1.59753072e+00	2.12563826e-07	1.76542654e-07	3.60211721e-08
3.98           	7.24094001e-08	1.59670288e+00	2.12545230e-07	1.78682015e-07	3.38632149e-08
4              	7.45776765e-08	1.59554016e+00	2.05331787e-07	1.77243570e-07	2.80882169e-08
4.02           	7.68176972e-08	1.59489087e+00	1.51095986e-07	1.52365690e-07	-1.26970417e-09
4.04           	7.90024908e-08	1.59359848e+00	-9.90952843e-08	2.94548487e-08	-1.28550133e-07
4.06           	8.12651848e-08	1.59259300e+00	3.36189599e-07	2.49359984e-07	8.68296147e-08
4.08           	8.35149038e-08	1.59159748e+00	-2.07594677e-07	-2.02824347e-08	-1.87312242e-07
4.1            	8.57969664e-08	1.59062953e+00	-8.12106309e-08	4.51916510e-08	-1.26402282e-07
4.12           	8.81745083e-08	1.58964305e+00	1.29601895e-08	9.46546031e-08	-8.16944135e-08
4.14           	1.14486235e-07	1.58864974e+00	4.65334177e-08	1.37752944e-07	-9.12195266e-08
4.16           	1.42688057e-07	1.58765615e+00	-2.13245757e-08	1.32025769e-07	-1.53350344e-07
4.18           	1.68821444e-07	1.58666031e+00	-1.14264887e-07	1.11689000e-07	-2.25953887e-07
4.2            	1.91509374e-07	1.58565503e+00	-1.30498727e-07	1.26260011e-07	-2.56758738e-07
4.22           	2.10470105e-07	1.58460943e+00	-3.35779201e-08	1.93681145e-07	-2.27259065e-07
4.24           	2.26007378e-07	1.58367508e+00	-2.71337692e-07	9.03385318e-08	-3.61676224e-07
4.26           	2.38581358e-07	1.58271725e+00	-4.29980459e-08	2.17082335e-07	-2.60080381e-07
4.28           	2.48667929e-07	1.58173519e+00	-1.38726531e-08	2.41731602e-07	-2.55604255e-07
4.3            	2.56768319e-07	1.58070688e+00	-1.86760816e-07	1.63387911e-07	-3.50148728e-07
4.32           	2.63235464e-07	1.57969967e+00	-4.20897077e-07	5.27869253e-08	-4.73684002e-07
4.34           	2.68433240e-07	1.57871360e+00	-1.38424367e-07	1.99221056e-07	-3.37645423e-07
4.36           	2.72592052e-07	1.57765910e+00	-6.17455531e-09	2.69504774e-07	-2.75679329e-07
4.38           	2.75916431e-07	1.57678145e+00	4.17923812e-08	2.96812622e-07	-2.55020240e-07
4.4            	2.78540185e-07	1.57572776e+00	1.26852283e-07	3.41966326e-07	-2.15114043e-07
4.42           	2.80626842e-07	1.57473045e+00	5.23613144e-08	3.06807500e-07	-2.54446185e-07
4.44           	2.82361847e-07	1.57377553e+00	1.00097195e-06	7.82847824e-07	2.18124131e-07
4.46           	2.83694610e-07	1.57271448e+00	-1.11258007e-06	-2.72595427e-07	-8.39984648e-07
4.48           	2.84737252e-07	1.57165213e+00	4.41256490e-07	5.05365497e-07	-6.41090068e-08
4.5            	2.87648101e-07	1.57081883e+00	-4.30785510e-09	2.85494173e-07	-2.89802028e-07
4.52           	2.88262088e-07	1.56961875e+00	1.10524579e-06	8.40884982e-07	2.64360806e-07
4.54           	2.86203467e-07	1.56853034e+00	-6.89728292e-07	-5.86606791e-08	-6.31067613e-07
4.56           	2.81318425e-07	1.56751928e+00	4.05693865e-07	4.84165357e-07	-7.84714919e-08
4.58           	2.74014275e-07	1.56651389e+00	1.23279904e-07	3.35654227e-07	-2.12374323e-07
4.6            	2.65228440e-07	1.56558077e+00	1.19643219e-06	8.63444537e-07	3.32987657e-07
4.62           	2.55572276e-07	1.56460631e+00	1.02145837e-07	3.06645195e-07	-2.04499357e-07
4.64           	2.45476988e-07	1.56362291e+00	2.48835048e-07	3.69894512e-07	-1.21059464e-07
4.66           	2.32857830e-07	1.56263358e+00	2.74709368e-07	3.70212514e-07	-9.55031462e-08
4.68           	2.20625116e-07	1.56164638e+00	2.58202358e-07	3.49726295e-07	-9.15239369e-08
4.7            	2.08862082e-07	1.56066091e+00	2.43062598e-07	3.30393381e-07	-8.73307828e-08
4.72           	1.97605091e-07	1.55967726e+00	2.47198897e-07	3.21204539e-07	-7.40056422e-08
4.74           	1.86793154e-07	1.55866968e+00	2.75035474e-07	3.24310891e-07	-4.92754167e-08
4.76           	1.76347794e-07	1.55768545e+00	1.95289218e-07	2.73992403e-07	-7.87031851e-08
4.78           	1.66219021e-07	1.55680236e+00	2.76210014e-08	1.80029522e-07	-1.52408520e-07
4.8            	1.56397707e-07	1.55584918e+00	8.91955824e-08	2.00995498e-07	-1.11799916e-07
4.82           	1.46907874e-07	1.55487000e+00	7.89367737e-08	1.86376261e-07	-1.07439488e-07
4.84           	1.37757991e-07	1.55389100e+00	9.82342765e-08	1.86875129e-07	-8.86408530e-08
4.86           	1.28954807e-07	1.55292277e+00	-2.29461946e-08	1.17481709e-07	-1.40427904e-07
4.88           	1.20503178e-07	1.55195410e+00	-2.28245048e-07	6.38065432e-09	-2.34625702e-07
4.9            	1.12419500e-07	1.55098718e+00	-2.74196517e-07	-2.46787586e-08	-2.49517759e-07
4.92           	1.04679491e-07	1.55002524e+00	-2.62365303e-07	-2.65031607e-08	-2.35862142e-07
4.94           	9.72579842e-08	1.54906884e+00	-2.90857489e-07	-4.81707602e-08	-2.42686728e-07
4.96           	9.01245189e-08	1.54814464e+00	-4.20478657e-07	-1.20114810e-07	-3.00363847e-07
4.98           	8.32468106e-08	1.54711284e+00	-4.86162280e-08	5.89386966e-08	-1.07554925e-07
5              	7.66015349e-08	1.54620412e+00	-4.65197948e-07	-1.55997439e-07	-3.09200509e-07
5.02           	7.01589376e-08	1.54530180e+00	-2.78897486e-07	-6.92898055e-08	-2.09607681e-07
5.04           	6.39015994e-08	1.54436689e+00	-2.97872909e-07	-8.50348550e-08	-2.12838054e-07
5.06           	5.78066489e-08	1.54345238e+00	-3.22326529e-07	-1.03356616e-07	-2.18969913e-07
5.08           	5.18597613e-08	1.54260969e+00	-3.36523543e-07	-1.16402010e-07	-2.20121533e-07
5.1            	4.60268013e-08	1.54089036e+00	-4.39547694e-07	-1.73747046e-07	-2.65800648e-07
5.12           	4.02981212e-08	1.54055943e+00	-7.38355149e-07	-3.28879454e-07	-4.09475696e-07
5.14           	3.46807966e-08	1.53970745e+00	1.99721819e-07	1.34541706e-07	6.51801130e-08
5.16           	2.92030665e-08	1.53879941e+00	-6.25104974e-07	-2.83349420e-07	-3.41755553e-07
5.18           	2.38447286e-08	1.53788672e+00	-5.03947767e-07	-2.28129155e-07	-2.75818612e-07
5.2            	1.85951599e-08	1.53697980e+00	-5.00245158e-07	-2.31527419e-07	-2.68717739e-07
5.22           	1.34484111e-08	1.53608691e+00	-5.30736708e-07	-2.51919943e-07	-2.78816765e-07
5.24           	8.38608671e-09	1.53523664e+00	-5.92130494e-07	-2.87679160e-07	-3.04451334e-07
5.26           	3.39876144e-09	1.53426179e+00	-4.52243021e-07	-2.22722749e-07	-2.29520272e-07
5.28           	-1.50045006e-09	1.53346442e+00	-1.19934020e-06	-6.01170552e-07	-5.98169652e-07
5.3            	-6.33228421e-09	1.53281118e+00	-8.34323138e-07	-4.23493853e-07	-4.10829285e-07
5.32           	-1.11056842e-08	1.53138163e+00	-9.42174637e-07	-4.82193003e-07	-4.59981634e-07
5.34           	-1.57951808e-08	1.53040600e+00	-1.32203827e-06	-6.76814316e-07	-6.45223954e-07
5.36           	-2.03760185e-08	1.52960886e+00	-2.37450720e-07	-1.39101379e-07	-9.83493416e-08
5.38           	-2.48666454e-08	1.52875079e+00	-9.90822185e-07	-5.20277738e-07	-4.70544447e-07
5.4            	-2.92859733e-08	1.52788044e+00	-9.55348133e-07	-5.06960040e-07	-4.48388093e-07
5.42           	-3.36382786e-08	1.52700820e+00	-9.76798592e-07	-5.22037575e-07	-4.54761018e-07
5.44           	-3.79180602e-08	1.52620594e+00	-8.06548862e-07	-4.41192491e-07	-3.65356371e-07
5.46           	-4.21304252e-08	1.52522205e+00	-8.30682297e-07	-4.57471573e-07	-3.73210723e-07
5.48           	-4.62644543e-08	1.52433981e+00	-9.28833853e-07	-5.10681381e-07	-4.18152472e-07
5.5            	-5.03206738e-08	1.52347419e+00	-8.31913626e-07	-4.66277487e-07	-3.65636139e-07
5.52           	-5.42826977e-08	1.52260557e+00	-7.62410845e-07	-4.35488120e-07	-3.26922725e-07
5.54           	-5.81419791e-08	1.52175606e+00	-1.04327274e-06	-5.79778348e-07	-4.63494390e-07
5.56           	-6.19025160e-08	1.52094907e+00	-9.24995523e-07	-5.24400278e-07	-4.00595246e-07
5.58           	-6.55603310e-08	1.52010475e+00	-8.59395611e-07	-4.95258137e-07	-3.64137474e-07
5.6            	-6.91129656e-08	1.51923546e+00	-8.42847178e-07	-4.90536555e-07	-3.52310623e-07
5.62           	-7.25652396e-08	1.51834578e+00	-8.63160260e-07	-5.04145370e-07	-3.59014891e-07
5.64           	-7.58986385e-08	1.51723336e+00	-8.86689396e-07	-5.19243336e-07	-3.67446059e-07
5.66           	-7.91349965e-08	1.51671066e+00	-8.92387187e-07	-5.25328590e-07	-3.67058597e-07
5.68           	-8.22832447e-08	1.51589093e+00	-9.08131909e-07	-5.36349199e-07	-3.71782710e-07
5.7            	-8.53469173e-08	1.51504824e+00	-1.07702997e-06	-6.23861903e-07	-4.53168068e-07
5.72           	-8.83165098e-08	1.51421765e+00	-4.94465982e-07	-3.35549501e-07	-1.58916481e-07
5.74           	-9.11666672e-08	1.51338460e+00	1.22689466e-06	5.22280664e-07	7.04613999e-07
5.76           	-9.40087107e-08	1.51256925e+00	1.28093411e-06	5.46458342e-07	7.34475763e-07
5.78           	-9.68155427e-08	1.51179533e+00	1.22185992e-06	5.14114417e-07	7.07745502e-07
5.8            	-9.96010301e-08	1.51040191e+00	4.68768944e-07	1.34783442e-07	3.33985502e-07
5.82           	-1.02313160e-07	1.51006823e+00	6.45345156e-07	2.20359418e-07	4.24985738e-07
5.84           	-1.05018318e-07	1.50930647e+00	4.46139500e-08	-8.27113426e-08	1.27325293e-07
5.86           	-1.07686369e-07	1.50849592e+00	9.31767516e-08	-6.10979931e-08	1.54274745e-07
5.88           	-1.09598950e-07	1.50768083e+00	-1.89468379e-07	-2.04333140e-07	1.48647603e-08
5.9            	-1.10804114e-07	1.50687032e+00	-5.71437535e-07	-3.96522882e-07	-1.74914653e-07
5.92           	-1.11322788e-07	1.50606527e+00	-8.96817981e-07	-5.59731779e-07	-3.37086202e-07
5.94           	-1.11278339e-07	1.50526390e+00	-1.48117763e-06	-8.51867154e-07	-6.29310476e-07
5.96           	-1.10802190e-07	1.50446475e+00	-2.13369617e-06	-1.17765027e-06	-9.56045895e-07
5.98           	-1.10046292e-07	1.50366577e+00	-2.54459872e-06	-1.38234565e-06	-1.16225307e-06
6              	-1.09157411e-07	1.50284907e+00	-2.49620313e-06	-1.35725897e-06	-1.13894415e-06
6.02           	-1.08228518e-07	1.50212283e+00	-4.59271319e-06	-2.40458511e-06	-2.18812808e-06
6.04           	-1.07326487e-07	1.50135303e+00	-3.87934105e-06	-2.04699701e-06	-1.83234404e-06
6.06           	-1.06482532e-07	1.50056786e+00	-4.11836138e-06	-2.16566322e-06	-1.95269816e-06
6.08           	-1.05731719e-07	1.49977374e+00	-4.26237654e-06	-2.23691999e-06	-2.02545655e-06
6.1            	-1.05093430e-07	1.49899213e+00	-4.42910345e-06	-2.31964515e-06	-2.10945829e-06
6.12           	-1.04570676e-07	1.49821083e+00	-4.49188196e-06	-2.35051166e-06	-2.14137030e-06
6.14           	-1.04170046e-07	1.49743782e+00	-5.80345056e-06	-3.00589533e-06	-2.79755523e-06
6.16           	-1.03889495e-07	1.49671483e+00	-6.52519230e-06	-3.36648564e-06	-3.15870665e-06
6.18           	-1.03711166e-07	1.49596927e+00	-5.11039697e-06	-2.65890965e-06	-2.45148732e-06
6.2            	-1.03620274e-07	1.49520205e+00	-5.29517768e-06	-2.75120912e-06	-2.54396857e-06
6.22           	-1.03616666e-07	1.49435482e+00	-5.55715311e-06	-2.88219322e-06	-2.67495989e-06
6.24           	-1.03708439e-07	1.49367674e+00	-5.86740212e-06	-3.03740950e-06	-2.82999262e-06
6.26           	-1.03872325e-07	1.49295144e+00	-5.97939527e-06	-3.09356996e-06	-2.88582531e-06
6.28           	-1.04107959e-07	1.49227364e+00	-5.92403880e-06	-3.06612736e-06	-2.85791144e-06
6.3            	-1.04409709e-07	1.49144589e+00	-5.72151214e-06	-2.96516578e-06	-2.75634636e-06